
     Program PWSCF v.6.1 (svn rev. 13369) starts on 23Jul2021 at 17: 0:21 

     This program is part of the open-source Quantum ESPRESSO suite
     for quantum simulation of materials; please cite
         "P. Giannozzi et al., J. Phys.:Condens. Matter 21 395502 (2009);
          URL http://www.quantum-espresso.org", 
     in publications or presentations arising from this work. More details at
     http://www.quantum-espresso.org/quote

     Parallel version (MPI), running on    24 processors
     R & G space division:  proc/nbgrp/npool/nimage =      24
     Waiting for input...
     Reading input from standard input

     Current dimensions of program PWSCF are:
     Max number of different atomic species (ntypx) = 10
     Max number of k-points (npk) =  40000
     Max angular momentum in pseudopotentials (lmaxx) =  3

     Atomic positions and unit cell read from directory:
     ./si.save/


     Subspace diagonalization in iterative solution of the eigenvalue problem:
     a serial algorithm will be used


     Parallelization info
     --------------------
     sticks:   dense  smooth     PW     G-vecs:    dense   smooth      PW
     Min          15      15      5                  185      185      38
     Max          16      16      6                  188      188      42
     Sum         361     361    121                 4477     4477     941



     bravais-lattice index     =            2
     lattice parameter (alat)  =      10.2000  a.u.
     unit-cell volume          =     265.3020 (a.u.)^3
     number of atoms/cell      =            2
     number of atomic types    =            1
     number of electrons       =         8.00
     number of Kohn-Sham states=           12
     kinetic-energy cutoff     =      25.0000  Ry
     charge density cutoff     =     100.0000  Ry
     Exchange-correlation      =  SLA  PW   PBE  PBE ( 1  4  3  4 0 0)

     celldm(1)=  10.200000  celldm(2)=   0.000000  celldm(3)=   0.000000
     celldm(4)=   0.000000  celldm(5)=   0.000000  celldm(6)=   0.000000

     crystal axes: (cart. coord. in units of alat)
               a(1) = (  -0.500000   0.000000   0.500000 )  
               a(2) = (   0.000000   0.500000   0.500000 )  
               a(3) = (  -0.500000   0.500000   0.000000 )  

     reciprocal axes: (cart. coord. in units 2 pi/alat)
               b(1) = ( -1.000000 -1.000000  1.000000 )  
               b(2) = (  1.000000  1.000000  1.000000 )  
               b(3) = ( -1.000000  1.000000 -1.000000 )  


     PseudoPot. # 1 for Si read from file:
     ../../pseudo/Si.pbe-n-van.UPF
     MD5 check sum: 8a97496598b7338af554a5de8957bfee
     Pseudo is Ultrasoft + core correction, Zval =  4.0
     Generated by new atomic code, or converted to UPF format
     Using radial grid of  899 points,  6 beta functions with: 
                l(1) =   0
                l(2) =   0
                l(3) =   1
                l(4) =   1
                l(5) =   2
                l(6) =   2
     Q(r) pseudized with  8 coefficients,  rinner =    0.900   0.900   0.900
                                                       0.900   0.900

     atomic species   valence    mass     pseudopotential
        Si             4.00    28.00000     Si( 1.00)

     48 Sym. Ops., with inversion, found (24 have fractional translation)


                                    s                        frac. trans.

      isym =  1     identity                                     

 cryst.   s( 1) = (     1          0          0      )
                  (     0          1          0      )
                  (     0          0          1      )

 cart.    s( 1) = (  1.0000000  0.0000000  0.0000000 )
                  (  0.0000000  1.0000000  0.0000000 )
                  (  0.0000000  0.0000000  1.0000000 )


      isym =  2     180 deg rotation - cart. axis [0,0,1]        

 cryst.   s( 2) = (     0          1         -1      )
                  (     1          0         -1      )
                  (     0          0         -1      )

 cart.    s( 2) = ( -1.0000000  0.0000000  0.0000000 )
                  (  0.0000000 -1.0000000  0.0000000 )
                  (  0.0000000  0.0000000  1.0000000 )


      isym =  3     180 deg rotation - cart. axis [0,1,0]        

 cryst.   s( 3) = (    -1          0          0      )
                  (    -1          0          1      )
                  (    -1          1          0      )

 cart.    s( 3) = ( -1.0000000  0.0000000  0.0000000 )
                  (  0.0000000  1.0000000  0.0000000 )
                  (  0.0000000  0.0000000 -1.0000000 )


      isym =  4     180 deg rotation - cart. axis [1,0,0]        

 cryst.   s( 4) = (     0         -1          1      )
                  (     0         -1          0      )
                  (     1         -1          0      )

 cart.    s( 4) = (  1.0000000  0.0000000  0.0000000 )
                  (  0.0000000 -1.0000000  0.0000000 )
                  (  0.0000000  0.0000000 -1.0000000 )


      isym =  5     180 deg rotation - cart. axis [1,1,0]        

 cryst.   s( 5) = (     0         -1          0      )    f =(  0.2500000 )
                  (    -1          0          0      )       (  0.2500000 )
                  (     0          0         -1      )       (  0.2500000 )

 cart.    s( 5) = (  0.0000000  1.0000000  0.0000000 )    f =( -0.2500000 )
                  (  1.0000000  0.0000000  0.0000000 )       (  0.2500000 )
                  (  0.0000000  0.0000000 -1.0000000 )       (  0.2500000 )


      isym =  6     180 deg rotation - cart. axis [1,-1,0]       

 cryst.   s( 6) = (    -1          0          1      )    f =(  0.2500000 )
                  (     0         -1          1      )       (  0.2500000 )
                  (     0          0          1      )       (  0.2500000 )

 cart.    s( 6) = (  0.0000000 -1.0000000  0.0000000 )    f =( -0.2500000 )
                  ( -1.0000000  0.0000000  0.0000000 )       (  0.2500000 )
                  (  0.0000000  0.0000000 -1.0000000 )       (  0.2500000 )


      isym =  7      90 deg rotation - cart. axis [0,0,-1]       

 cryst.   s( 7) = (     0          1          0      )    f =(  0.2500000 )
                  (     0          1         -1      )       (  0.2500000 )
                  (    -1          1          0      )       (  0.2500000 )

 cart.    s( 7) = (  0.0000000  1.0000000  0.0000000 )    f =( -0.2500000 )
                  ( -1.0000000  0.0000000  0.0000000 )       (  0.2500000 )
                  (  0.0000000  0.0000000  1.0000000 )       (  0.2500000 )


      isym =  8      90 deg rotation - cart. axis [0,0,1]        

 cryst.   s( 8) = (     1          0         -1      )    f =(  0.2500000 )
                  (     1          0          0      )       (  0.2500000 )
                  (     1         -1          0      )       (  0.2500000 )

 cart.    s( 8) = (  0.0000000 -1.0000000  0.0000000 )    f =( -0.2500000 )
                  (  1.0000000  0.0000000  0.0000000 )       (  0.2500000 )
                  (  0.0000000  0.0000000  1.0000000 )       (  0.2500000 )


      isym =  9     180 deg rotation - cart. axis [1,0,1]        

 cryst.   s( 9) = (    -1          0          0      )    f =(  0.2500000 )
                  (     0          0         -1      )       (  0.2500000 )
                  (     0         -1          0      )       (  0.2500000 )

 cart.    s( 9) = (  0.0000000  0.0000000  1.0000000 )    f =( -0.2500000 )
                  (  0.0000000 -1.0000000  0.0000000 )       (  0.2500000 )
                  (  1.0000000  0.0000000  0.0000000 )       (  0.2500000 )


      isym = 10     180 deg rotation - cart. axis [-1,0,1]       

 cryst.   s(10) = (     1          0          0      )    f =(  0.2500000 )
                  (     1         -1          0      )       (  0.2500000 )
                  (     1          0         -1      )       (  0.2500000 )

 cart.    s(10) = (  0.0000000  0.0000000 -1.0000000 )    f =( -0.2500000 )
                  (  0.0000000 -1.0000000  0.0000000 )       (  0.2500000 )
                  ( -1.0000000  0.0000000  0.0000000 )       (  0.2500000 )


      isym = 11      90 deg rotation - cart. axis [0,1,0]        

 cryst.   s(11) = (     0          1         -1      )    f =(  0.2500000 )
                  (    -1          1          0      )       (  0.2500000 )
                  (     0          1          0      )       (  0.2500000 )

 cart.    s(11) = (  0.0000000  0.0000000  1.0000000 )    f =( -0.2500000 )
                  (  0.0000000  1.0000000  0.0000000 )       (  0.2500000 )
                  ( -1.0000000  0.0000000  0.0000000 )       (  0.2500000 )


      isym = 12      90 deg rotation - cart. axis [0,-1,0]       

 cryst.   s(12) = (     0         -1          1      )    f =(  0.2500000 )
                  (     0          0          1      )       (  0.2500000 )
                  (    -1          0          1      )       (  0.2500000 )

 cart.    s(12) = (  0.0000000  0.0000000 -1.0000000 )    f =( -0.2500000 )
                  (  0.0000000  1.0000000  0.0000000 )       (  0.2500000 )
                  (  1.0000000  0.0000000  0.0000000 )       (  0.2500000 )


      isym = 13     180 deg rotation - cart. axis [0,1,1]        

 cryst.   s(13) = (    -1          1          0      )    f =(  0.2500000 )
                  (     0          1          0      )       (  0.2500000 )
                  (     0          1         -1      )       (  0.2500000 )

 cart.    s(13) = ( -1.0000000  0.0000000  0.0000000 )    f =( -0.2500000 )
                  (  0.0000000  0.0000000  1.0000000 )       (  0.2500000 )
                  (  0.0000000  1.0000000  0.0000000 )       (  0.2500000 )


      isym = 14     180 deg rotation - cart. axis [0,1,-1]       

 cryst.   s(14) = (     0          0         -1      )    f =(  0.2500000 )
                  (     0         -1          0      )       (  0.2500000 )
                  (    -1          0          0      )       (  0.2500000 )

 cart.    s(14) = ( -1.0000000  0.0000000  0.0000000 )    f =( -0.2500000 )
                  (  0.0000000  0.0000000 -1.0000000 )       (  0.2500000 )
                  (  0.0000000 -1.0000000  0.0000000 )       (  0.2500000 )


      isym = 15      90 deg rotation - cart. axis [-1,0,0]       

 cryst.   s(15) = (     0          0          1      )    f =(  0.2500000 )
                  (    -1          0          1      )       (  0.2500000 )
                  (     0         -1          1      )       (  0.2500000 )

 cart.    s(15) = (  1.0000000  0.0000000  0.0000000 )    f =( -0.2500000 )
                  (  0.0000000  0.0000000  1.0000000 )       (  0.2500000 )
                  (  0.0000000 -1.0000000  0.0000000 )       (  0.2500000 )


      isym = 16      90 deg rotation - cart. axis [1,0,0]        

 cryst.   s(16) = (     1         -1          0      )    f =(  0.2500000 )
                  (     1          0         -1      )       (  0.2500000 )
                  (     1          0          0      )       (  0.2500000 )

 cart.    s(16) = (  1.0000000  0.0000000  0.0000000 )    f =( -0.2500000 )
                  (  0.0000000  0.0000000 -1.0000000 )       (  0.2500000 )
                  (  0.0000000  1.0000000  0.0000000 )       (  0.2500000 )


      isym = 17     120 deg rotation - cart. axis [-1,-1,-1]     

 cryst.   s(17) = (    -1          0          1      )
                  (    -1          1          0      )
                  (    -1          0          0      )

 cart.    s(17) = (  0.0000000  1.0000000  0.0000000 )
                  (  0.0000000  0.0000000  1.0000000 )
                  (  1.0000000  0.0000000  0.0000000 )


      isym = 18     120 deg rotation - cart. axis [-1,1,1]       

 cryst.   s(18) = (     0          1          0      )
                  (     0          0          1      )
                  (     1          0          0      )

 cart.    s(18) = (  0.0000000 -1.0000000  0.0000000 )
                  (  0.0000000  0.0000000  1.0000000 )
                  ( -1.0000000  0.0000000  0.0000000 )


      isym = 19     120 deg rotation - cart. axis [1,1,-1]       

 cryst.   s(19) = (     1          0         -1      )
                  (     0          0         -1      )
                  (     0          1         -1      )

 cart.    s(19) = (  0.0000000  1.0000000  0.0000000 )
                  (  0.0000000  0.0000000 -1.0000000 )
                  ( -1.0000000  0.0000000  0.0000000 )


      isym = 20     120 deg rotation - cart. axis [1,-1,1]       

 cryst.   s(20) = (     0         -1          0      )
                  (     1         -1          0      )
                  (     0         -1          1      )

 cart.    s(20) = (  0.0000000 -1.0000000  0.0000000 )
                  (  0.0000000  0.0000000 -1.0000000 )
                  (  1.0000000  0.0000000  0.0000000 )


      isym = 21     120 deg rotation - cart. axis [1,1,1]        

 cryst.   s(21) = (     0          0         -1      )
                  (     0          1         -1      )
                  (     1          0         -1      )

 cart.    s(21) = (  0.0000000  0.0000000  1.0000000 )
                  (  1.0000000  0.0000000  0.0000000 )
                  (  0.0000000  1.0000000  0.0000000 )


      isym = 22     120 deg rotation - cart. axis [-1,1,-1]      

 cryst.   s(22) = (    -1          1          0      )
                  (    -1          0          0      )
                  (    -1          0          1      )

 cart.    s(22) = (  0.0000000  0.0000000  1.0000000 )
                  ( -1.0000000  0.0000000  0.0000000 )
                  (  0.0000000 -1.0000000  0.0000000 )


      isym = 23     120 deg rotation - cart. axis [1,-1,-1]      

 cryst.   s(23) = (     0          0          1      )
                  (     1          0          0      )
                  (     0          1          0      )

 cart.    s(23) = (  0.0000000  0.0000000 -1.0000000 )
                  ( -1.0000000  0.0000000  0.0000000 )
                  (  0.0000000  1.0000000  0.0000000 )


      isym = 24     120 deg rotation - cart. axis [-1,-1,1]      

 cryst.   s(24) = (     1         -1          0      )
                  (     0         -1          1      )
                  (     0         -1          0      )

 cart.    s(24) = (  0.0000000  0.0000000 -1.0000000 )
                  (  1.0000000  0.0000000  0.0000000 )
                  (  0.0000000 -1.0000000  0.0000000 )


      isym = 25     inversion                                    

 cryst.   s(25) = (    -1          0          0      )    f =(  0.2500000 )
                  (     0         -1          0      )       (  0.2500000 )
                  (     0          0         -1      )       (  0.2500000 )

 cart.    s(25) = ( -1.0000000  0.0000000  0.0000000 )    f =( -0.2500000 )
                  (  0.0000000 -1.0000000  0.0000000 )       (  0.2500000 )
                  (  0.0000000  0.0000000 -1.0000000 )       (  0.2500000 )


      isym = 26     inv. 180 deg rotation - cart. axis [0,0,1]   

 cryst.   s(26) = (     0         -1          1      )    f =(  0.2500000 )
                  (    -1          0          1      )       (  0.2500000 )
                  (     0          0          1      )       (  0.2500000 )

 cart.    s(26) = (  1.0000000  0.0000000  0.0000000 )    f =( -0.2500000 )
                  (  0.0000000  1.0000000  0.0000000 )       (  0.2500000 )
                  (  0.0000000  0.0000000 -1.0000000 )       (  0.2500000 )


      isym = 27     inv. 180 deg rotation - cart. axis [0,1,0]   

 cryst.   s(27) = (     1          0          0      )    f =(  0.2500000 )
                  (     1          0         -1      )       (  0.2500000 )
                  (     1         -1          0      )       (  0.2500000 )

 cart.    s(27) = (  1.0000000  0.0000000  0.0000000 )    f =( -0.2500000 )
                  (  0.0000000 -1.0000000  0.0000000 )       (  0.2500000 )
                  (  0.0000000  0.0000000  1.0000000 )       (  0.2500000 )


      isym = 28     inv. 180 deg rotation - cart. axis [1,0,0]   

 cryst.   s(28) = (     0          1         -1      )    f =(  0.2500000 )
                  (     0          1          0      )       (  0.2500000 )
                  (    -1          1          0      )       (  0.2500000 )

 cart.    s(28) = ( -1.0000000  0.0000000  0.0000000 )    f =( -0.2500000 )
                  (  0.0000000  1.0000000  0.0000000 )       (  0.2500000 )
                  (  0.0000000  0.0000000  1.0000000 )       (  0.2500000 )


      isym = 29     inv. 180 deg rotation - cart. axis [1,1,0]   

 cryst.   s(29) = (     0          1          0      )
                  (     1          0          0      )
                  (     0          0          1      )

 cart.    s(29) = (  0.0000000 -1.0000000  0.0000000 )
                  ( -1.0000000  0.0000000  0.0000000 )
                  (  0.0000000  0.0000000  1.0000000 )


      isym = 30     inv. 180 deg rotation - cart. axis [1,-1,0]  

 cryst.   s(30) = (     1          0         -1      )
                  (     0          1         -1      )
                  (     0          0         -1      )

 cart.    s(30) = (  0.0000000  1.0000000  0.0000000 )
                  (  1.0000000  0.0000000  0.0000000 )
                  (  0.0000000  0.0000000  1.0000000 )


      isym = 31     inv.  90 deg rotation - cart. axis [0,0,-1]  

 cryst.   s(31) = (     0         -1          0      )
                  (     0         -1          1      )
                  (     1         -1          0      )

 cart.    s(31) = (  0.0000000 -1.0000000  0.0000000 )
                  (  1.0000000  0.0000000  0.0000000 )
                  (  0.0000000  0.0000000 -1.0000000 )


      isym = 32     inv.  90 deg rotation - cart. axis [0,0,1]   

 cryst.   s(32) = (    -1          0          1      )
                  (    -1          0          0      )
                  (    -1          1          0      )

 cart.    s(32) = (  0.0000000  1.0000000  0.0000000 )
                  ( -1.0000000  0.0000000  0.0000000 )
                  (  0.0000000  0.0000000 -1.0000000 )


      isym = 33     inv. 180 deg rotation - cart. axis [1,0,1]   

 cryst.   s(33) = (     1          0          0      )
                  (     0          0          1      )
                  (     0          1          0      )

 cart.    s(33) = (  0.0000000  0.0000000 -1.0000000 )
                  (  0.0000000  1.0000000  0.0000000 )
                  ( -1.0000000  0.0000000  0.0000000 )


      isym = 34     inv. 180 deg rotation - cart. axis [-1,0,1]  

 cryst.   s(34) = (    -1          0          0      )
                  (    -1          1          0      )
                  (    -1          0          1      )

 cart.    s(34) = (  0.0000000  0.0000000  1.0000000 )
                  (  0.0000000  1.0000000  0.0000000 )
                  (  1.0000000  0.0000000  0.0000000 )


      isym = 35     inv.  90 deg rotation - cart. axis [0,1,0]   

 cryst.   s(35) = (     0         -1          1      )
                  (     1         -1          0      )
                  (     0         -1          0      )

 cart.    s(35) = (  0.0000000  0.0000000 -1.0000000 )
                  (  0.0000000 -1.0000000  0.0000000 )
                  (  1.0000000  0.0000000  0.0000000 )


      isym = 36     inv.  90 deg rotation - cart. axis [0,-1,0]  

 cryst.   s(36) = (     0          1         -1      )
                  (     0          0         -1      )
                  (     1          0         -1      )

 cart.    s(36) = (  0.0000000  0.0000000  1.0000000 )
                  (  0.0000000 -1.0000000  0.0000000 )
                  ( -1.0000000  0.0000000  0.0000000 )


      isym = 37     inv. 180 deg rotation - cart. axis [0,1,1]   

 cryst.   s(37) = (     1         -1          0      )
                  (     0         -1          0      )
                  (     0         -1          1      )

 cart.    s(37) = (  1.0000000  0.0000000  0.0000000 )
                  (  0.0000000  0.0000000 -1.0000000 )
                  (  0.0000000 -1.0000000  0.0000000 )


      isym = 38     inv. 180 deg rotation - cart. axis [0,1,-1]  

 cryst.   s(38) = (     0          0          1      )
                  (     0          1          0      )
                  (     1          0          0      )

 cart.    s(38) = (  1.0000000  0.0000000  0.0000000 )
                  (  0.0000000  0.0000000  1.0000000 )
                  (  0.0000000  1.0000000  0.0000000 )


      isym = 39     inv.  90 deg rotation - cart. axis [-1,0,0]  

 cryst.   s(39) = (     0          0         -1      )
                  (     1          0         -1      )
                  (     0          1         -1      )

 cart.    s(39) = ( -1.0000000  0.0000000  0.0000000 )
                  (  0.0000000  0.0000000 -1.0000000 )
                  (  0.0000000  1.0000000  0.0000000 )


      isym = 40     inv.  90 deg rotation - cart. axis [1,0,0]   

 cryst.   s(40) = (    -1          1          0      )
                  (    -1          0          1      )
                  (    -1          0          0      )

 cart.    s(40) = ( -1.0000000  0.0000000  0.0000000 )
                  (  0.0000000  0.0000000  1.0000000 )
                  (  0.0000000 -1.0000000  0.0000000 )


      isym = 41     inv. 120 deg rotation - cart. axis [-1,-1,-1]

 cryst.   s(41) = (     1          0         -1      )    f =(  0.2500000 )
                  (     1         -1          0      )       (  0.2500000 )
                  (     1          0          0      )       (  0.2500000 )

 cart.    s(41) = (  0.0000000 -1.0000000  0.0000000 )    f =( -0.2500000 )
                  (  0.0000000  0.0000000 -1.0000000 )       (  0.2500000 )
                  ( -1.0000000  0.0000000  0.0000000 )       (  0.2500000 )


      isym = 42     inv. 120 deg rotation - cart. axis [-1,1,1]  

 cryst.   s(42) = (     0         -1          0      )    f =(  0.2500000 )
                  (     0          0         -1      )       (  0.2500000 )
                  (    -1          0          0      )       (  0.2500000 )

 cart.    s(42) = (  0.0000000  1.0000000  0.0000000 )    f =( -0.2500000 )
                  (  0.0000000  0.0000000 -1.0000000 )       (  0.2500000 )
                  (  1.0000000  0.0000000  0.0000000 )       (  0.2500000 )


      isym = 43     inv. 120 deg rotation - cart. axis [1,1,-1]  

 cryst.   s(43) = (    -1          0          1      )    f =(  0.2500000 )
                  (     0          0          1      )       (  0.2500000 )
                  (     0         -1          1      )       (  0.2500000 )

 cart.    s(43) = (  0.0000000 -1.0000000  0.0000000 )    f =( -0.2500000 )
                  (  0.0000000  0.0000000  1.0000000 )       (  0.2500000 )
                  (  1.0000000  0.0000000  0.0000000 )       (  0.2500000 )


      isym = 44     inv. 120 deg rotation - cart. axis [1,-1,1]  

 cryst.   s(44) = (     0          1          0      )    f =(  0.2500000 )
                  (    -1          1          0      )       (  0.2500000 )
                  (     0          1         -1      )       (  0.2500000 )

 cart.    s(44) = (  0.0000000  1.0000000  0.0000000 )    f =( -0.2500000 )
                  (  0.0000000  0.0000000  1.0000000 )       (  0.2500000 )
                  ( -1.0000000  0.0000000  0.0000000 )       (  0.2500000 )


      isym = 45     inv. 120 deg rotation - cart. axis [1,1,1]   

 cryst.   s(45) = (     0          0          1      )    f =(  0.2500000 )
                  (     0         -1          1      )       (  0.2500000 )
                  (    -1          0          1      )       (  0.2500000 )

 cart.    s(45) = (  0.0000000  0.0000000 -1.0000000 )    f =( -0.2500000 )
                  ( -1.0000000  0.0000000  0.0000000 )       (  0.2500000 )
                  (  0.0000000 -1.0000000  0.0000000 )       (  0.2500000 )


      isym = 46     inv. 120 deg rotation - cart. axis [-1,1,-1] 

 cryst.   s(46) = (     1         -1          0      )    f =(  0.2500000 )
                  (     1          0          0      )       (  0.2500000 )
                  (     1          0         -1      )       (  0.2500000 )

 cart.    s(46) = (  0.0000000  0.0000000 -1.0000000 )    f =( -0.2500000 )
                  (  1.0000000  0.0000000  0.0000000 )       (  0.2500000 )
                  (  0.0000000  1.0000000  0.0000000 )       (  0.2500000 )


      isym = 47     inv. 120 deg rotation - cart. axis [1,-1,-1] 

 cryst.   s(47) = (     0          0         -1      )    f =(  0.2500000 )
                  (    -1          0          0      )       (  0.2500000 )
                  (     0         -1          0      )       (  0.2500000 )

 cart.    s(47) = (  0.0000000  0.0000000  1.0000000 )    f =( -0.2500000 )
                  (  1.0000000  0.0000000  0.0000000 )       (  0.2500000 )
                  (  0.0000000 -1.0000000  0.0000000 )       (  0.2500000 )


      isym = 48     inv. 120 deg rotation - cart. axis [-1,-1,1] 

 cryst.   s(48) = (    -1          1          0      )    f =(  0.2500000 )
                  (     0          1         -1      )       (  0.2500000 )
                  (     0          1          0      )       (  0.2500000 )

 cart.    s(48) = (  0.0000000  0.0000000  1.0000000 )    f =( -0.2500000 )
                  ( -1.0000000  0.0000000  0.0000000 )       (  0.2500000 )
                  (  0.0000000  1.0000000  0.0000000 )       (  0.2500000 )


     point group O_h (m-3m) 
     there are 10 classes
     the character table:

       E     8C3   3C2   6C4   6C2'  i     8S6   3s_h  6S4   6s_d 
A_1g   1.00  1.00  1.00  1.00  1.00  1.00  1.00  1.00  1.00  1.00
A_2g   1.00  1.00  1.00 -1.00 -1.00  1.00  1.00  1.00 -1.00 -1.00
E_g    2.00 -1.00  2.00  0.00  0.00  2.00 -1.00  2.00  0.00  0.00
T_1g   3.00  0.00 -1.00  1.00 -1.00  3.00  0.00 -1.00  1.00 -1.00
T_2g   3.00  0.00 -1.00 -1.00  1.00  3.00  0.00 -1.00 -1.00  1.00
A_1u   1.00  1.00  1.00  1.00  1.00 -1.00 -1.00 -1.00 -1.00 -1.00
A_2u   1.00  1.00  1.00 -1.00 -1.00 -1.00 -1.00 -1.00  1.00  1.00
E_u    2.00 -1.00  2.00  0.00  0.00 -2.00  1.00 -2.00  0.00  0.00
T_1u   3.00  0.00 -1.00  1.00 -1.00 -3.00  0.00  1.00 -1.00  1.00
T_2u   3.00  0.00 -1.00 -1.00  1.00 -3.00  0.00  1.00  1.00 -1.00

     the symmetry operations in each class and the name of the first element:

     E        1
          identity                                               
     8C3     17   19   20   18   24   21   22   23
          120 deg rotation - cart. axis [-1,-1,-1]               
     3C2      2    4    3
          180 deg rotation - cart. axis [0,0,1]                  
     6C4      7    8   15   16   12   11
           90 deg rotation - cart. axis [0,0,-1]                 
     6C2'     5    6   14   13   10    9
          180 deg rotation - cart. axis [1,1,0]                  
     i       25
          inversion                                              
     8S6     41   43   44   42   48   45   46   47
          inv. 120 deg rotation - cart. axis [-1,-1,-1]          
     3s_h    26   28   27
          inv. 180 deg rotation - cart. axis [0,0,1]             
     6S4     31   32   39   40   36   35
          inv.  90 deg rotation - cart. axis [0,0,-1]            
     6s_d    29   30   38   37   34   33
          inv. 180 deg rotation - cart. axis [1,1,0]             

   Cartesian axes

     site n.     atom                  positions (alat units)
         1           Si  tau(   1) = (   0.2500000   0.2500000   0.2500000  )
         2           Si  tau(   2) = (   0.0000000   0.0000000   0.0000000  )

   Crystallographic axes

     site n.     atom                  positions (cryst. coord.)
         1           Si  tau(   1) = ( -0.2500000  0.7500000 -0.2500000  )
         2           Si  tau(   2) = (  0.0000000  0.0000000  0.0000000  )

     number of k points=    64
                       cart. coord. in units 2pi/alat
        k(    1) = (   0.0000000   0.0000000   0.0000000), wk =   0.0312500
        k(    2) = (  -0.2500000   0.2500000  -0.2500000), wk =   0.0312500
        k(    3) = (  -0.5000000   0.5000000  -0.5000000), wk =   0.0312500
        k(    4) = (  -0.7500000   0.7500000  -0.7500000), wk =   0.0312500
        k(    5) = (   0.2500000   0.2500000   0.2500000), wk =   0.0312500
        k(    6) = (   0.0000000   0.5000000   0.0000000), wk =   0.0312500
        k(    7) = (  -0.2500000   0.7500000  -0.2500000), wk =   0.0312500
        k(    8) = (  -0.5000000   1.0000000  -0.5000000), wk =   0.0312500
        k(    9) = (   0.5000000   0.5000000   0.5000000), wk =   0.0312500
        k(   10) = (   0.2500000   0.7500000   0.2500000), wk =   0.0312500
        k(   11) = (   0.0000000   1.0000000   0.0000000), wk =   0.0312500
        k(   12) = (  -0.2500000   1.2500000  -0.2500000), wk =   0.0312500
        k(   13) = (   0.7500000   0.7500000   0.7500000), wk =   0.0312500
        k(   14) = (   0.5000000   1.0000000   0.5000000), wk =   0.0312500
        k(   15) = (   0.2500000   1.2500000   0.2500000), wk =   0.0312500
        k(   16) = (   0.0000000   1.5000000   0.0000000), wk =   0.0312500
        k(   17) = (  -0.2500000  -0.2500000   0.2500000), wk =   0.0312500
        k(   18) = (  -0.5000000   0.0000000   0.0000000), wk =   0.0312500
        k(   19) = (  -0.7500000   0.2500000  -0.2500000), wk =   0.0312500
        k(   20) = (  -1.0000000   0.5000000  -0.5000000), wk =   0.0312500
        k(   21) = (   0.0000000   0.0000000   0.5000000), wk =   0.0312500
        k(   22) = (  -0.2500000   0.2500000   0.2500000), wk =   0.0312500
        k(   23) = (  -0.5000000   0.5000000   0.0000000), wk =   0.0312500
        k(   24) = (  -0.7500000   0.7500000  -0.2500000), wk =   0.0312500
        k(   25) = (   0.2500000   0.2500000   0.7500000), wk =   0.0312500
        k(   26) = (   0.0000000   0.5000000   0.5000000), wk =   0.0312500
        k(   27) = (  -0.2500000   0.7500000   0.2500000), wk =   0.0312500
        k(   28) = (  -0.5000000   1.0000000   0.0000000), wk =   0.0312500
        k(   29) = (   0.5000000   0.5000000   1.0000000), wk =   0.0312500
        k(   30) = (   0.2500000   0.7500000   0.7500000), wk =   0.0312500
        k(   31) = (   0.0000000   1.0000000   0.5000000), wk =   0.0312500
        k(   32) = (  -0.2500000   1.2500000   0.2500000), wk =   0.0312500
        k(   33) = (  -0.5000000  -0.5000000   0.5000000), wk =   0.0312500
        k(   34) = (  -0.7500000  -0.2500000   0.2500000), wk =   0.0312500
        k(   35) = (  -1.0000000   0.0000000   0.0000000), wk =   0.0312500
        k(   36) = (  -1.2500000   0.2500000  -0.2500000), wk =   0.0312500
        k(   37) = (  -0.2500000  -0.2500000   0.7500000), wk =   0.0312500
        k(   38) = (  -0.5000000   0.0000000   0.5000000), wk =   0.0312500
        k(   39) = (  -0.7500000   0.2500000   0.2500000), wk =   0.0312500
        k(   40) = (  -1.0000000   0.5000000   0.0000000), wk =   0.0312500
        k(   41) = (   0.0000000   0.0000000   1.0000000), wk =   0.0312500
        k(   42) = (  -0.2500000   0.2500000   0.7500000), wk =   0.0312500
        k(   43) = (  -0.5000000   0.5000000   0.5000000), wk =   0.0312500
        k(   44) = (  -0.7500000   0.7500000   0.2500000), wk =   0.0312500
        k(   45) = (   0.2500000   0.2500000   1.2500000), wk =   0.0312500
        k(   46) = (   0.0000000   0.5000000   1.0000000), wk =   0.0312500
        k(   47) = (  -0.2500000   0.7500000   0.7500000), wk =   0.0312500
        k(   48) = (  -0.5000000   1.0000000   0.5000000), wk =   0.0312500
        k(   49) = (  -0.7500000  -0.7500000   0.7500000), wk =   0.0312500
        k(   50) = (  -1.0000000  -0.5000000   0.5000000), wk =   0.0312500
        k(   51) = (  -1.2500000  -0.2500000   0.2500000), wk =   0.0312500
        k(   52) = (  -1.5000000   0.0000000   0.0000000), wk =   0.0312500
        k(   53) = (  -0.5000000  -0.5000000   1.0000000), wk =   0.0312500
        k(   54) = (  -0.7500000  -0.2500000   0.7500000), wk =   0.0312500
        k(   55) = (  -1.0000000   0.0000000   0.5000000), wk =   0.0312500
        k(   56) = (  -1.2500000   0.2500000   0.2500000), wk =   0.0312500
        k(   57) = (  -0.2500000  -0.2500000   1.2500000), wk =   0.0312500
        k(   58) = (  -0.5000000   0.0000000   1.0000000), wk =   0.0312500
        k(   59) = (  -0.7500000   0.2500000   0.7500000), wk =   0.0312500
        k(   60) = (  -1.0000000   0.5000000   0.5000000), wk =   0.0312500
        k(   61) = (   0.0000000   0.0000000   1.5000000), wk =   0.0312500
        k(   62) = (  -0.2500000   0.2500000   1.2500000), wk =   0.0312500
        k(   63) = (  -0.5000000   0.5000000   1.0000000), wk =   0.0312500
        k(   64) = (  -0.7500000   0.7500000   0.7500000), wk =   0.0312500

                       cryst. coord.
        k(    1) = (   0.0000000   0.0000000   0.0000000), wk =   0.0312500
        k(    2) = (   0.0000000   0.0000000   0.2500000), wk =   0.0312500
        k(    3) = (   0.0000000   0.0000000   0.5000000), wk =   0.0312500
        k(    4) = (   0.0000000   0.0000000   0.7500000), wk =   0.0312500
        k(    5) = (   0.0000000   0.2500000   0.0000000), wk =   0.0312500
        k(    6) = (   0.0000000   0.2500000   0.2500000), wk =   0.0312500
        k(    7) = (   0.0000000   0.2500000   0.5000000), wk =   0.0312500
        k(    8) = (   0.0000000   0.2500000   0.7500000), wk =   0.0312500
        k(    9) = (   0.0000000   0.5000000   0.0000000), wk =   0.0312500
        k(   10) = (   0.0000000   0.5000000   0.2500000), wk =   0.0312500
        k(   11) = (   0.0000000   0.5000000   0.5000000), wk =   0.0312500
        k(   12) = (   0.0000000   0.5000000   0.7500000), wk =   0.0312500
        k(   13) = (   0.0000000   0.7500000   0.0000000), wk =   0.0312500
        k(   14) = (   0.0000000   0.7500000   0.2500000), wk =   0.0312500
        k(   15) = (   0.0000000   0.7500000   0.5000000), wk =   0.0312500
        k(   16) = (   0.0000000   0.7500000   0.7500000), wk =   0.0312500
        k(   17) = (   0.2500000   0.0000000   0.0000000), wk =   0.0312500
        k(   18) = (   0.2500000   0.0000000   0.2500000), wk =   0.0312500
        k(   19) = (   0.2500000   0.0000000   0.5000000), wk =   0.0312500
        k(   20) = (   0.2500000   0.0000000   0.7500000), wk =   0.0312500
        k(   21) = (   0.2500000   0.2500000   0.0000000), wk =   0.0312500
        k(   22) = (   0.2500000   0.2500000   0.2500000), wk =   0.0312500
        k(   23) = (   0.2500000   0.2500000   0.5000000), wk =   0.0312500
        k(   24) = (   0.2500000   0.2500000   0.7500000), wk =   0.0312500
        k(   25) = (   0.2500000   0.5000000   0.0000000), wk =   0.0312500
        k(   26) = (   0.2500000   0.5000000   0.2500000), wk =   0.0312500
        k(   27) = (   0.2500000   0.5000000   0.5000000), wk =   0.0312500
        k(   28) = (   0.2500000   0.5000000   0.7500000), wk =   0.0312500
        k(   29) = (   0.2500000   0.7500000   0.0000000), wk =   0.0312500
        k(   30) = (   0.2500000   0.7500000   0.2500000), wk =   0.0312500
        k(   31) = (   0.2500000   0.7500000   0.5000000), wk =   0.0312500
        k(   32) = (   0.2500000   0.7500000   0.7500000), wk =   0.0312500
        k(   33) = (   0.5000000   0.0000000   0.0000000), wk =   0.0312500
        k(   34) = (   0.5000000   0.0000000   0.2500000), wk =   0.0312500
        k(   35) = (   0.5000000   0.0000000   0.5000000), wk =   0.0312500
        k(   36) = (   0.5000000   0.0000000   0.7500000), wk =   0.0312500
        k(   37) = (   0.5000000   0.2500000   0.0000000), wk =   0.0312500
        k(   38) = (   0.5000000   0.2500000   0.2500000), wk =   0.0312500
        k(   39) = (   0.5000000   0.2500000   0.5000000), wk =   0.0312500
        k(   40) = (   0.5000000   0.2500000   0.7500000), wk =   0.0312500
        k(   41) = (   0.5000000   0.5000000   0.0000000), wk =   0.0312500
        k(   42) = (   0.5000000   0.5000000   0.2500000), wk =   0.0312500
        k(   43) = (   0.5000000   0.5000000   0.5000000), wk =   0.0312500
        k(   44) = (   0.5000000   0.5000000   0.7500000), wk =   0.0312500
        k(   45) = (   0.5000000   0.7500000   0.0000000), wk =   0.0312500
        k(   46) = (   0.5000000   0.7500000   0.2500000), wk =   0.0312500
        k(   47) = (   0.5000000   0.7500000   0.5000000), wk =   0.0312500
        k(   48) = (   0.5000000   0.7500000   0.7500000), wk =   0.0312500
        k(   49) = (   0.7500000   0.0000000   0.0000000), wk =   0.0312500
        k(   50) = (   0.7500000   0.0000000   0.2500000), wk =   0.0312500
        k(   51) = (   0.7500000   0.0000000   0.5000000), wk =   0.0312500
        k(   52) = (   0.7500000   0.0000000   0.7500000), wk =   0.0312500
        k(   53) = (   0.7500000   0.2500000   0.0000000), wk =   0.0312500
        k(   54) = (   0.7500000   0.2500000   0.2500000), wk =   0.0312500
        k(   55) = (   0.7500000   0.2500000   0.5000000), wk =   0.0312500
        k(   56) = (   0.7500000   0.2500000   0.7500000), wk =   0.0312500
        k(   57) = (   0.7500000   0.5000000   0.0000000), wk =   0.0312500
        k(   58) = (   0.7500000   0.5000000   0.2500000), wk =   0.0312500
        k(   59) = (   0.7500000   0.5000000   0.5000000), wk =   0.0312500
        k(   60) = (   0.7500000   0.5000000   0.7500000), wk =   0.0312500
        k(   61) = (   0.7500000   0.7500000   0.0000000), wk =   0.0312500
        k(   62) = (   0.7500000   0.7500000   0.2500000), wk =   0.0312500
        k(   63) = (   0.7500000   0.7500000   0.5000000), wk =   0.0312500
        k(   64) = (   0.7500000   0.7500000   0.7500000), wk =   0.0312500

     Dense  grid:     4477 G-vectors     FFT dimensions: (  24,  24,  24)

     Estimated max dynamical RAM per process >       0.15MB

     Estimated total allocated dynamical RAM >       3.69MB

     Check: negative/imaginary core charge=   -0.000002    0.000000

     The potential is recalculated from file :
     ./si.save/charge-density.dat

     Starting wfc are    8 randomized atomic wfcs +    4 random wfc

     Band Structure Calculation
     CG style diagonalization

     Computing kpt #:     1
     total cpu time spent up to now is        0.9 secs

     Computing kpt #:     2
     total cpu time spent up to now is        1.0 secs

     Computing kpt #:     3
     total cpu time spent up to now is        1.0 secs

     Computing kpt #:     4
     total cpu time spent up to now is        1.1 secs

     Computing kpt #:     5
     total cpu time spent up to now is        1.1 secs

     Computing kpt #:     6
     total cpu time spent up to now is        1.2 secs

     Computing kpt #:     7
     total cpu time spent up to now is        1.2 secs

     Computing kpt #:     8
     total cpu time spent up to now is        1.3 secs

     Computing kpt #:     9
     total cpu time spent up to now is        1.3 secs

     Computing kpt #:    10
     total cpu time spent up to now is        1.4 secs

     Computing kpt #:    11
     total cpu time spent up to now is        1.4 secs

     Computing kpt #:    12
     total cpu time spent up to now is        1.5 secs

     Computing kpt #:    13
     total cpu time spent up to now is        1.5 secs

     Computing kpt #:    14
     total cpu time spent up to now is        1.6 secs

     Computing kpt #:    15
     total cpu time spent up to now is        1.6 secs

     Computing kpt #:    16
     total cpu time spent up to now is        1.7 secs

     Computing kpt #:    17
     total cpu time spent up to now is        1.7 secs

     Computing kpt #:    18
     total cpu time spent up to now is        1.8 secs

     Computing kpt #:    19
     total cpu time spent up to now is        1.8 secs

     Computing kpt #:    20
     total cpu time spent up to now is        1.9 secs

     Computing kpt #:    21
     total cpu time spent up to now is        1.9 secs

     Computing kpt #:    22
     total cpu time spent up to now is        2.0 secs

     Computing kpt #:    23
     total cpu time spent up to now is        2.0 secs

     Computing kpt #:    24
     total cpu time spent up to now is        2.0 secs

     Computing kpt #:    25
     total cpu time spent up to now is        2.1 secs

     Computing kpt #:    26
     total cpu time spent up to now is        2.1 secs

     Computing kpt #:    27
     total cpu time spent up to now is        2.2 secs

     Computing kpt #:    28
     total cpu time spent up to now is        2.2 secs

     Computing kpt #:    29
     total cpu time spent up to now is        2.2 secs

     Computing kpt #:    30
     total cpu time spent up to now is        2.3 secs

     Computing kpt #:    31
     total cpu time spent up to now is        2.3 secs

     Computing kpt #:    32
     total cpu time spent up to now is        2.4 secs

     Computing kpt #:    33
     total cpu time spent up to now is        2.4 secs

     Computing kpt #:    34
     total cpu time spent up to now is        2.5 secs

     Computing kpt #:    35
     total cpu time spent up to now is        2.5 secs

     Computing kpt #:    36
     total cpu time spent up to now is        2.5 secs

     Computing kpt #:    37
     total cpu time spent up to now is        2.6 secs

     Computing kpt #:    38
     total cpu time spent up to now is        2.6 secs

     Computing kpt #:    39
     total cpu time spent up to now is        2.7 secs

     Computing kpt #:    40
     total cpu time spent up to now is        2.7 secs

     Computing kpt #:    41
     total cpu time spent up to now is        2.7 secs

     Computing kpt #:    42
     total cpu time spent up to now is        2.8 secs

     Computing kpt #:    43
     total cpu time spent up to now is        2.8 secs

     Computing kpt #:    44
     total cpu time spent up to now is        2.9 secs

     Computing kpt #:    45
     total cpu time spent up to now is        2.9 secs

     Computing kpt #:    46
     total cpu time spent up to now is        3.0 secs

     Computing kpt #:    47
     total cpu time spent up to now is        3.0 secs

     Computing kpt #:    48
     total cpu time spent up to now is        3.0 secs

     Computing kpt #:    49
     total cpu time spent up to now is        3.1 secs

     Computing kpt #:    50
     total cpu time spent up to now is        3.1 secs

     Computing kpt #:    51
     total cpu time spent up to now is        3.1 secs

     Computing kpt #:    52
     total cpu time spent up to now is        3.2 secs

     Computing kpt #:    53
     total cpu time spent up to now is        3.2 secs

     Computing kpt #:    54
     total cpu time spent up to now is        3.3 secs

     Computing kpt #:    55
     total cpu time spent up to now is        3.3 secs

     Computing kpt #:    56
     total cpu time spent up to now is        3.3 secs

     Computing kpt #:    57
     total cpu time spent up to now is        3.4 secs

     Computing kpt #:    58
     total cpu time spent up to now is        3.4 secs

     Computing kpt #:    59
     total cpu time spent up to now is        3.5 secs

     Computing kpt #:    60
     total cpu time spent up to now is        3.5 secs

     Computing kpt #:    61
     total cpu time spent up to now is        3.5 secs

     Computing kpt #:    62
     total cpu time spent up to now is        3.6 secs

     Computing kpt #:    63
     total cpu time spent up to now is        3.6 secs

     Computing kpt #:    64
     total cpu time spent up to now is        3.7 secs

     ethr =  1.25E-14,  avg # of iterations = 34.2

     total cpu time spent up to now is        3.7 secs

     End of band structure calculation

          k = 0.0000 0.0000 0.0000 (   537 PWs)   bands (ev):

    -5.6983   6.3869   6.3869   6.3869   8.9601   8.9601   8.9601   9.9634
    14.1290  14.1290  14.4255  17.7043

     occupation numbers 
     1.0000   1.0000   1.0000   1.0000   0.0000   0.0000   0.0000   0.0000
     0.0000   0.0000   0.0000   0.0000

          k =-0.2500 0.2500-0.2500 (   564 PWs)   bands (ev):

    -4.8857   2.4268   5.6152   5.6152   8.4814   9.9108   9.9108  13.4586
    13.6004  13.6004  15.4502  18.3531

     occupation numbers 
     1.0000   1.0000   1.0000   1.0000   0.0000   0.0000   0.0000   0.0000
     0.0000   0.0000   0.0000   0.0000

          k =-0.5000 0.5000-0.5000 (   568 PWs)   bands (ev):

    -3.3214  -0.6667   5.1718   5.1718   7.9927   9.7238   9.7238  14.1464
    16.9922  16.9922  17.8400  17.8400

     occupation numbers 
     1.0000   1.0000   1.0000   1.0000   0.0000   0.0000   0.0000   0.0000
     0.0000   0.0000   0.0000   0.0000

          k =-0.7500 0.7500-0.7500 (   564 PWs)   bands (ev):

    -4.8857   2.4268   5.6152   5.6152   8.4814   9.9108   9.9108  13.4586
    13.6004  13.6004  15.4502  18.3531

     occupation numbers 
     1.0000   1.0000   1.0000   1.0000   0.0000   0.0000   0.0000   0.0000
     0.0000   0.0000   0.0000   0.0000

          k = 0.2500 0.2500 0.2500 (   564 PWs)   bands (ev):

    -4.8857   2.4268   5.6152   5.6152   8.4814   9.9108   9.9108  13.4586
    13.6004  13.6004  15.4502  18.3531

     occupation numbers 
     1.0000   1.0000   1.0000   1.0000   0.0000   0.0000   0.0000   0.0000
     0.0000   0.0000   0.0000   0.0000

          k = 0.0000 0.5000 0.0000 (   560 PWs)   bands (ev):

    -4.5994   2.8733   4.4632   4.4632   7.5047   9.5224  12.2062  12.2062
    14.6339  15.3510  17.9504  19.4875

     occupation numbers 
     1.0000   1.0000   1.0000   1.0000   0.0000   0.0000   0.0000   0.0000
     0.0000   0.0000   0.0000   0.0000

          k =-0.2500 0.7500-0.2500 (   558 PWs)   bands (ev):

    -2.9335  -0.0444   2.7949   4.1449   7.8941  10.8540  12.2250  12.3472
    16.7144  16.9979  18.6450  19.2472

     occupation numbers 
     1.0000   1.0000   1.0000   1.0000   0.0000   0.0000   0.0000   0.0000
     0.0000   0.0000   0.0000   0.0000

          k =-0.5000 1.0000-0.5000 (   554 PWs)   bands (ev):

    -3.6201   0.8739   2.5662   5.0384   8.8522  11.2167  11.5676  12.6337
    12.8369  16.1312  19.1179  19.7408

     occupation numbers 
     1.0000   1.0000   1.0000   1.0000   0.0000   0.0000   0.0000   0.0000
     0.0000   0.0000   0.0000   0.0000

          k = 0.5000 0.5000 0.5000 (   568 PWs)   bands (ev):

    -3.3214  -0.6667   5.1718   5.1718   7.9927   9.7238   9.7238  14.1464
    16.9922  16.9922  17.8400  17.8400

     occupation numbers 
     1.0000   1.0000   1.0000   1.0000   0.0000   0.0000   0.0000   0.0000
     0.0000   0.0000   0.0000   0.0000

          k = 0.2500 0.7500 0.2500 (   558 PWs)   bands (ev):

    -2.9335  -0.0444   2.7949   4.1449   7.8941  10.8540  12.2250  12.3472
    16.7144  16.9979  18.6450  19.2472

     occupation numbers 
     1.0000   1.0000   1.0000   1.0000   0.0000   0.0000   0.0000   0.0000
     0.0000   0.0000   0.0000   0.0000

          k = 0.0000 1.0000 0.0000 (   556 PWs)   bands (ev):

    -1.4882  -1.4882   3.4871   3.4871   7.0675   7.0675  16.6545  16.6545
    17.4272  17.4272  18.9835  18.9835

     occupation numbers 
     1.0000   1.0000   1.0000   1.0000   0.0000   0.0000   0.0000   0.0000
     0.0000   0.0000   0.0000   0.0000

          k =-0.2500 1.2500-0.2500 (   558 PWs)   bands (ev):

    -2.9335  -0.0444   2.7949   4.1449   7.8941  10.8540  12.2250  12.3472
    16.7144  16.9979  18.6450  19.2472

     occupation numbers 
     1.0000   1.0000   1.0000   1.0000   0.0000   0.0000   0.0000   0.0000
     0.0000   0.0000   0.0000   0.0000

          k = 0.7500 0.7500 0.7500 (   564 PWs)   bands (ev):

    -4.8857   2.4268   5.6152   5.6152   8.4814   9.9108   9.9108  13.4586
    13.6004  13.6004  15.4502  18.3531

     occupation numbers 
     1.0000   1.0000   1.0000   1.0000   0.0000   0.0000   0.0000   0.0000
     0.0000   0.0000   0.0000   0.0000

          k = 0.5000 1.0000 0.5000 (   554 PWs)   bands (ev):

    -3.6201   0.8739   2.5662   5.0384   8.8522  11.2167  11.5676  12.6337
    12.8369  16.1312  19.1179  19.7408

     occupation numbers 
     1.0000   1.0000   1.0000   1.0000   0.0000   0.0000   0.0000   0.0000
     0.0000   0.0000   0.0000   0.0000

          k = 0.2500 1.2500 0.2500 (   558 PWs)   bands (ev):

    -2.9335  -0.0444   2.7949   4.1449   7.8941  10.8540  12.2250  12.3472
    16.7144  16.9979  18.6450  19.2472

     occupation numbers 
     1.0000   1.0000   1.0000   1.0000   0.0000   0.0000   0.0000   0.0000
     0.0000   0.0000   0.0000   0.0000

          k = 0.0000 1.5000 0.0000 (   560 PWs)   bands (ev):

    -4.5994   2.8733   4.4632   4.4632   7.5047   9.5224  12.2062  12.2062
    14.6339  15.3510  17.9504  19.4875

     occupation numbers 
     1.0000   1.0000   1.0000   1.0000   0.0000   0.0000   0.0000   0.0000
     0.0000   0.0000   0.0000   0.0000

          k =-0.2500-0.2500 0.2500 (   564 PWs)   bands (ev):

    -4.8857   2.4268   5.6152   5.6152   8.4814   9.9108   9.9108  13.4586
    13.6004  13.6004  15.4502  18.3531

     occupation numbers 
     1.0000   1.0000   1.0000   1.0000   0.0000   0.0000   0.0000   0.0000
     0.0000   0.0000   0.0000   0.0000

          k =-0.5000 0.0000 0.0000 (   560 PWs)   bands (ev):

    -4.5994   2.8733   4.4632   4.4632   7.5047   9.5224  12.2062  12.2062
    14.6339  15.3510  17.9504  19.4875

     occupation numbers 
     1.0000   1.0000   1.0000   1.0000   0.0000   0.0000   0.0000   0.0000
     0.0000   0.0000   0.0000   0.0000

          k =-0.7500 0.2500-0.2500 (   558 PWs)   bands (ev):

    -2.9335  -0.0444   2.7949   4.1449   7.8941  10.8540  12.2250  12.3472
    16.7144  16.9979  18.6450  19.2472

     occupation numbers 
     1.0000   1.0000   1.0000   1.0000   0.0000   0.0000   0.0000   0.0000
     0.0000   0.0000   0.0000   0.0000

          k =-1.0000 0.5000-0.5000 (   554 PWs)   bands (ev):

    -3.6201   0.8739   2.5662   5.0384   8.8522  11.2167  11.5676  12.6337
    12.8369  16.1312  19.1179  19.7408

     occupation numbers 
     1.0000   1.0000   1.0000   1.0000   0.0000   0.0000   0.0000   0.0000
     0.0000   0.0000   0.0000   0.0000

          k = 0.0000 0.0000 0.5000 (   560 PWs)   bands (ev):

    -4.5994   2.8733   4.4632   4.4632   7.5047   9.5224  12.2062  12.2062
    14.6339  15.3510  17.9504  19.4875

     occupation numbers 
     1.0000   1.0000   1.0000   1.0000   0.0000   0.0000   0.0000   0.0000
     0.0000   0.0000   0.0000   0.0000

          k =-0.2500 0.2500 0.2500 (   564 PWs)   bands (ev):

    -4.8857   2.4268   5.6152   5.6152   8.4814   9.9108   9.9108  13.4586
    13.6004  13.6004  15.4502  18.3531

     occupation numbers 
     1.0000   1.0000   1.0000   1.0000   0.0000   0.0000   0.0000   0.0000
     0.0000   0.0000   0.0000   0.0000

          k =-0.5000 0.5000 0.0000 (   554 PWs)   bands (ev):

    -3.6201   0.8739   2.5662   5.0384   8.8522  11.2167  11.5676  12.6337
    12.8369  16.1312  19.1179  19.7408

     occupation numbers 
     1.0000   1.0000   1.0000   1.0000   0.0000   0.0000   0.0000   0.0000
     0.0000   0.0000   0.0000   0.0000

          k =-0.7500 0.7500-0.2500 (   558 PWs)   bands (ev):

    -2.9335  -0.0444   2.7949   4.1449   7.8941  10.8540  12.2250  12.3472
    16.7144  16.9979  18.6450  19.2472

     occupation numbers 
     1.0000   1.0000   1.0000   1.0000   0.0000   0.0000   0.0000   0.0000
     0.0000   0.0000   0.0000   0.0000

          k = 0.2500 0.2500 0.7500 (   558 PWs)   bands (ev):

    -2.9335  -0.0444   2.7949   4.1449   7.8941  10.8540  12.2250  12.3472
    16.7144  16.9979  18.6450  19.2472

     occupation numbers 
     1.0000   1.0000   1.0000   1.0000   0.0000   0.0000   0.0000   0.0000
     0.0000   0.0000   0.0000   0.0000

          k = 0.0000 0.5000 0.5000 (   554 PWs)   bands (ev):

    -3.6201   0.8739   2.5662   5.0384   8.8522  11.2167  11.5676  12.6337
    12.8369  16.1312  19.1179  19.7408

     occupation numbers 
     1.0000   1.0000   1.0000   1.0000   0.0000   0.0000   0.0000   0.0000
     0.0000   0.0000   0.0000   0.0000

          k =-0.2500 0.7500 0.2500 (   558 PWs)   bands (ev):

    -2.9335  -0.0444   2.7949   4.1449   7.8941  10.8540  12.2250  12.3472
    16.7144  16.9979  18.6450  19.2472

     occupation numbers 
     1.0000   1.0000   1.0000   1.0000   0.0000   0.0000   0.0000   0.0000
     0.0000   0.0000   0.0000   0.0000

          k =-0.5000 1.0000 0.0000 (   560 PWs)   bands (ev):

    -1.3162  -1.3162   2.4591   2.4591  10.6614  10.6614  11.4569  11.4569
    17.0820  17.0820  19.5781  19.5781

     occupation numbers 
     1.0000   1.0000   1.0000   1.0000   0.0000   0.0000   0.0000   0.0000
     0.0000   0.0000   0.0000   0.0000

          k = 0.5000 0.5000 1.0000 (   554 PWs)   bands (ev):

    -3.6201   0.8739   2.5662   5.0384   8.8522  11.2167  11.5676  12.6337
    12.8369  16.1312  19.1179  19.7408

     occupation numbers 
     1.0000   1.0000   1.0000   1.0000   0.0000   0.0000   0.0000   0.0000
     0.0000   0.0000   0.0000   0.0000

          k = 0.2500 0.7500 0.7500 (   558 PWs)   bands (ev):

    -2.9335  -0.0444   2.7949   4.1449   7.8941  10.8540  12.2250  12.3472
    16.7144  16.9979  18.6450  19.2472

     occupation numbers 
     1.0000   1.0000   1.0000   1.0000   0.0000   0.0000   0.0000   0.0000
     0.0000   0.0000   0.0000   0.0000

          k = 0.0000 1.0000 0.5000 (   560 PWs)   bands (ev):

    -1.3162  -1.3162   2.4591   2.4591  10.6614  10.6614  11.4569  11.4569
    17.0820  17.0820  19.5781  19.5781

     occupation numbers 
     1.0000   1.0000   1.0000   1.0000   0.0000   0.0000   0.0000   0.0000
     0.0000   0.0000   0.0000   0.0000

          k =-0.2500 1.2500 0.2500 (   558 PWs)   bands (ev):

    -2.9335  -0.0444   2.7949   4.1449   7.8941  10.8540  12.2250  12.3472
    16.7144  16.9979  18.6450  19.2472

     occupation numbers 
     1.0000   1.0000   1.0000   1.0000   0.0000   0.0000   0.0000   0.0000
     0.0000   0.0000   0.0000   0.0000

          k =-0.5000-0.5000 0.5000 (   568 PWs)   bands (ev):

    -3.3214  -0.6667   5.1718   5.1718   7.9927   9.7238   9.7238  14.1464
    16.9922  16.9922  17.8400  17.8400

     occupation numbers 
     1.0000   1.0000   1.0000   1.0000   0.0000   0.0000   0.0000   0.0000
     0.0000   0.0000   0.0000   0.0000

          k =-0.7500-0.2500 0.2500 (   558 PWs)   bands (ev):

    -2.9335  -0.0444   2.7949   4.1449   7.8941  10.8540  12.2250  12.3472
    16.7144  16.9979  18.6450  19.2472

     occupation numbers 
     1.0000   1.0000   1.0000   1.0000   0.0000   0.0000   0.0000   0.0000
     0.0000   0.0000   0.0000   0.0000

          k =-1.0000 0.0000 0.0000 (   556 PWs)   bands (ev):

    -1.4882  -1.4882   3.4871   3.4871   7.0675   7.0675  16.6545  16.6545
    17.4272  17.4272  18.9835  18.9835

     occupation numbers 
     1.0000   1.0000   1.0000   1.0000   0.0000   0.0000   0.0000   0.0000
     0.0000   0.0000   0.0000   0.0000

          k =-1.2500 0.2500-0.2500 (   558 PWs)   bands (ev):

    -2.9335  -0.0444   2.7949   4.1449   7.8941  10.8540  12.2250  12.3472
    16.7144  16.9979  18.6450  19.2472

     occupation numbers 
     1.0000   1.0000   1.0000   1.0000   0.0000   0.0000   0.0000   0.0000
     0.0000   0.0000   0.0000   0.0000

          k =-0.2500-0.2500 0.7500 (   558 PWs)   bands (ev):

    -2.9335  -0.0444   2.7949   4.1449   7.8941  10.8540  12.2250  12.3472
    16.7144  16.9979  18.6450  19.2472

     occupation numbers 
     1.0000   1.0000   1.0000   1.0000   0.0000   0.0000   0.0000   0.0000
     0.0000   0.0000   0.0000   0.0000

          k =-0.5000 0.0000 0.5000 (   554 PWs)   bands (ev):

    -3.6201   0.8739   2.5662   5.0384   8.8522  11.2167  11.5676  12.6337
    12.8369  16.1312  19.1179  19.7408

     occupation numbers 
     1.0000   1.0000   1.0000   1.0000   0.0000   0.0000   0.0000   0.0000
     0.0000   0.0000   0.0000   0.0000

          k =-0.7500 0.2500 0.2500 (   558 PWs)   bands (ev):

    -2.9335  -0.0444   2.7949   4.1449   7.8941  10.8540  12.2250  12.3472
    16.7144  16.9979  18.6450  19.2472

     occupation numbers 
     1.0000   1.0000   1.0000   1.0000   0.0000   0.0000   0.0000   0.0000
     0.0000   0.0000   0.0000   0.0000

          k =-1.0000 0.5000 0.0000 (   560 PWs)   bands (ev):

    -1.3162  -1.3162   2.4591   2.4591  10.6614  10.6614  11.4569  11.4569
    17.0820  17.0820  19.5781  19.5781

     occupation numbers 
     1.0000   1.0000   1.0000   1.0000   0.0000   0.0000   0.0000   0.0000
     0.0000   0.0000   0.0000   0.0000

          k = 0.0000 0.0000 1.0000 (   556 PWs)   bands (ev):

    -1.4882  -1.4882   3.4871   3.4871   7.0675   7.0675  16.6545  16.6545
    17.4272  17.4272  18.9835  18.9835

     occupation numbers 
     1.0000   1.0000   1.0000   1.0000   0.0000   0.0000   0.0000   0.0000
     0.0000   0.0000   0.0000   0.0000

          k =-0.2500 0.2500 0.7500 (   558 PWs)   bands (ev):

    -2.9335  -0.0444   2.7949   4.1449   7.8941  10.8540  12.2250  12.3472
    16.7144  16.9979  18.6450  19.2472

     occupation numbers 
     1.0000   1.0000   1.0000   1.0000   0.0000   0.0000   0.0000   0.0000
     0.0000   0.0000   0.0000   0.0000

          k =-0.5000 0.5000 0.5000 (   568 PWs)   bands (ev):

    -3.3214  -0.6667   5.1718   5.1718   7.9927   9.7238   9.7238  14.1464
    16.9922  16.9922  17.8400  17.8400

     occupation numbers 
     1.0000   1.0000   1.0000   1.0000   0.0000   0.0000   0.0000   0.0000
     0.0000   0.0000   0.0000   0.0000

          k =-0.7500 0.7500 0.2500 (   558 PWs)   bands (ev):

    -2.9335  -0.0444   2.7949   4.1449   7.8941  10.8540  12.2250  12.3472
    16.7144  16.9979  18.6450  19.2472

     occupation numbers 
     1.0000   1.0000   1.0000   1.0000   0.0000   0.0000   0.0000   0.0000
     0.0000   0.0000   0.0000   0.0000

          k = 0.2500 0.2500 1.2500 (   558 PWs)   bands (ev):

    -2.9335  -0.0444   2.7949   4.1449   7.8941  10.8540  12.2250  12.3472
    16.7144  16.9979  18.6450  19.2472

     occupation numbers 
     1.0000   1.0000   1.0000   1.0000   0.0000   0.0000   0.0000   0.0000
     0.0000   0.0000   0.0000   0.0000

          k = 0.0000 0.5000 1.0000 (   560 PWs)   bands (ev):

    -1.3162  -1.3162   2.4591   2.4591  10.6614  10.6614  11.4569  11.4569
    17.0820  17.0820  19.5781  19.5781

     occupation numbers 
     1.0000   1.0000   1.0000   1.0000   0.0000   0.0000   0.0000   0.0000
     0.0000   0.0000   0.0000   0.0000

          k =-0.2500 0.7500 0.7500 (   558 PWs)   bands (ev):

    -2.9335  -0.0444   2.7949   4.1449   7.8941  10.8540  12.2250  12.3472
    16.7144  16.9979  18.6450  19.2472

     occupation numbers 
     1.0000   1.0000   1.0000   1.0000   0.0000   0.0000   0.0000   0.0000
     0.0000   0.0000   0.0000   0.0000

          k =-0.5000 1.0000 0.5000 (   554 PWs)   bands (ev):

    -3.6201   0.8739   2.5662   5.0384   8.8522  11.2167  11.5676  12.6337
    12.8369  16.1312  19.1179  19.7408

     occupation numbers 
     1.0000   1.0000   1.0000   1.0000   0.0000   0.0000   0.0000   0.0000
     0.0000   0.0000   0.0000   0.0000

          k =-0.7500-0.7500 0.7500 (   564 PWs)   bands (ev):

    -4.8857   2.4268   5.6152   5.6152   8.4814   9.9108   9.9108  13.4586
    13.6004  13.6004  15.4502  18.3531

     occupation numbers 
     1.0000   1.0000   1.0000   1.0000   0.0000   0.0000   0.0000   0.0000
     0.0000   0.0000   0.0000   0.0000

          k =-1.0000-0.5000 0.5000 (   554 PWs)   bands (ev):

    -3.6201   0.8739   2.5662   5.0384   8.8522  11.2167  11.5676  12.6337
    12.8369  16.1312  19.1179  19.7408

     occupation numbers 
     1.0000   1.0000   1.0000   1.0000   0.0000   0.0000   0.0000   0.0000
     0.0000   0.0000   0.0000   0.0000

          k =-1.2500-0.2500 0.2500 (   558 PWs)   bands (ev):

    -2.9335  -0.0444   2.7949   4.1449   7.8941  10.8540  12.2250  12.3472
    16.7144  16.9979  18.6450  19.2472

     occupation numbers 
     1.0000   1.0000   1.0000   1.0000   0.0000   0.0000   0.0000   0.0000
     0.0000   0.0000   0.0000   0.0000

          k =-1.5000 0.0000 0.0000 (   560 PWs)   bands (ev):

    -4.5994   2.8733   4.4632   4.4632   7.5047   9.5224  12.2062  12.2062
    14.6339  15.3510  17.9504  19.4875

     occupation numbers 
     1.0000   1.0000   1.0000   1.0000   0.0000   0.0000   0.0000   0.0000
     0.0000   0.0000   0.0000   0.0000

          k =-0.5000-0.5000 1.0000 (   554 PWs)   bands (ev):

    -3.6201   0.8739   2.5662   5.0384   8.8522  11.2167  11.5676  12.6337
    12.8369  16.1312  19.1179  19.7408

     occupation numbers 
     1.0000   1.0000   1.0000   1.0000   0.0000   0.0000   0.0000   0.0000
     0.0000   0.0000   0.0000   0.0000

          k =-0.7500-0.2500 0.7500 (   558 PWs)   bands (ev):

    -2.9335  -0.0444   2.7949   4.1449   7.8941  10.8540  12.2250  12.3472
    16.7144  16.9979  18.6450  19.2472

     occupation numbers 
     1.0000   1.0000   1.0000   1.0000   0.0000   0.0000   0.0000   0.0000
     0.0000   0.0000   0.0000   0.0000

          k =-1.0000 0.0000 0.5000 (   560 PWs)   bands (ev):

    -1.3162  -1.3162   2.4591   2.4591  10.6614  10.6614  11.4569  11.4569
    17.0820  17.0820  19.5781  19.5781

     occupation numbers 
     1.0000   1.0000   1.0000   1.0000   0.0000   0.0000   0.0000   0.0000
     0.0000   0.0000   0.0000   0.0000

          k =-1.2500 0.2500 0.2500 (   558 PWs)   bands (ev):

    -2.9335  -0.0444   2.7949   4.1449   7.8941  10.8540  12.2250  12.3472
    16.7144  16.9979  18.6450  19.2472

     occupation numbers 
     1.0000   1.0000   1.0000   1.0000   0.0000   0.0000   0.0000   0.0000
     0.0000   0.0000   0.0000   0.0000

          k =-0.2500-0.2500 1.2500 (   558 PWs)   bands (ev):

    -2.9335  -0.0444   2.7949   4.1449   7.8941  10.8540  12.2250  12.3472
    16.7144  16.9979  18.6450  19.2472

     occupation numbers 
     1.0000   1.0000   1.0000   1.0000   0.0000   0.0000   0.0000   0.0000
     0.0000   0.0000   0.0000   0.0000

          k =-0.5000 0.0000 1.0000 (   560 PWs)   bands (ev):

    -1.3162  -1.3162   2.4591   2.4591  10.6614  10.6614  11.4569  11.4569
    17.0820  17.0820  19.5781  19.5781

     occupation numbers 
     1.0000   1.0000   1.0000   1.0000   0.0000   0.0000   0.0000   0.0000
     0.0000   0.0000   0.0000   0.0000

          k =-0.7500 0.2500 0.7500 (   558 PWs)   bands (ev):

    -2.9335  -0.0444   2.7949   4.1449   7.8941  10.8540  12.2250  12.3472
    16.7144  16.9979  18.6450  19.2472

     occupation numbers 
     1.0000   1.0000   1.0000   1.0000   0.0000   0.0000   0.0000   0.0000
     0.0000   0.0000   0.0000   0.0000

          k =-1.0000 0.5000 0.5000 (   554 PWs)   bands (ev):

    -3.6201   0.8739   2.5662   5.0384   8.8522  11.2167  11.5676  12.6337
    12.8369  16.1312  19.1179  19.7408

     occupation numbers 
     1.0000   1.0000   1.0000   1.0000   0.0000   0.0000   0.0000   0.0000
     0.0000   0.0000   0.0000   0.0000

          k = 0.0000 0.0000 1.5000 (   560 PWs)   bands (ev):

    -4.5994   2.8733   4.4632   4.4632   7.5047   9.5224  12.2062  12.2062
    14.6339  15.3510  17.9504  19.4875

     occupation numbers 
     1.0000   1.0000   1.0000   1.0000   0.0000   0.0000   0.0000   0.0000
     0.0000   0.0000   0.0000   0.0000

          k =-0.2500 0.2500 1.2500 (   558 PWs)   bands (ev):

    -2.9335  -0.0444   2.7949   4.1449   7.8941  10.8540  12.2250  12.3472
    16.7144  16.9979  18.6450  19.2472

     occupation numbers 
     1.0000   1.0000   1.0000   1.0000   0.0000   0.0000   0.0000   0.0000
     0.0000   0.0000   0.0000   0.0000

          k =-0.5000 0.5000 1.0000 (   554 PWs)   bands (ev):

    -3.6201   0.8739   2.5662   5.0384   8.8522  11.2167  11.5676  12.6337
    12.8369  16.1312  19.1179  19.7408

     occupation numbers 
     1.0000   1.0000   1.0000   1.0000   0.0000   0.0000   0.0000   0.0000
     0.0000   0.0000   0.0000   0.0000

          k =-0.7500 0.7500 0.7500 (   564 PWs)   bands (ev):

    -4.8857   2.4268   5.6152   5.6152   8.4814   9.9108   9.9108  13.4586
    13.6004  13.6004  15.4502  18.3531

     occupation numbers 
     1.0000   1.0000   1.0000   1.0000   0.0000   0.0000   0.0000   0.0000
     0.0000   0.0000   0.0000   0.0000

     highest occupied, lowest unoccupied level (ev):     6.3869    7.0675

     Writing output data file si.save

     init_run     :      0.10s CPU      0.31s WALL (       1 calls)
     electrons    :      2.51s CPU      2.87s WALL (       1 calls)

     Called by init_run:
     wfcinit      :      0.00s CPU      0.04s WALL (       1 calls)
     wfcinit:atom :      0.00s CPU      0.00s WALL (      64 calls)
     wfcinit:wfcr :      0.04s CPU      0.06s WALL (      64 calls)
     potinit      :      0.01s CPU      0.02s WALL (       1 calls)

     Called by electrons:
     c_bands      :      2.51s CPU      2.87s WALL (       1 calls)
     v_of_rho     :      0.00s CPU      0.01s WALL (       1 calls)
     v_h          :      0.00s CPU      0.00s WALL (       1 calls)
     v_xc         :      0.00s CPU      0.01s WALL (       1 calls)
     newd         :      0.00s CPU      0.02s WALL (       1 calls)

     Called by c_bands:
     init_us_2    :      0.00s CPU      0.00s WALL (      64 calls)
     ccgdiagg     :      2.23s CPU      2.52s WALL (     181 calls)
     wfcrot       :      0.11s CPU      0.13s WALL (     181 calls)

     Called by sum_band:

     Called by *cgdiagg:
     h_psi        :      1.40s CPU      1.57s WALL (   24431 calls)
     s_psi        :      0.11s CPU      0.13s WALL (   48681 calls)
     cdiaghg      :      0.01s CPU      0.02s WALL (     181 calls)

     Called by h_psi:
     h_psi:pot    :      1.38s CPU      1.53s WALL (   24431 calls)
     h_psi:calbec :      0.23s CPU      0.25s WALL (   24431 calls)
     vloc_psi     :      1.03s CPU      1.13s WALL (   24431 calls)
     add_vuspsi   :      0.08s CPU      0.09s WALL (   24431 calls)
     h_1psi       :      1.46s CPU      1.64s WALL (   24250 calls)

     General routines
     calbec       :      0.34s CPU      0.38s WALL (   48681 calls)
     fft          :      0.01s CPU      0.08s WALL (      12 calls)
     fftw         :      0.95s CPU      1.04s WALL (   52844 calls)
     davcio       :      0.00s CPU      0.04s WALL (      64 calls)

     Parallel routines
     fft_scatter  :      0.67s CPU      0.74s WALL (   52856 calls)

     PWSCF        :     2.92s CPU         4.43s WALL


   This run was terminated on:  17: 0:25  23Jul2021            

=------------------------------------------------------------------------------=
   JOB DONE.
=------------------------------------------------------------------------------=
