
     Program PWSCF v.6.1 (svn rev. 13369) starts on 23Jul2021 at 15:55:28 

     This program is part of the open-source Quantum ESPRESSO suite
     for quantum simulation of materials; please cite
         "P. Giannozzi et al., J. Phys.:Condens. Matter 21 395502 (2009);
          URL http://www.quantum-espresso.org", 
     in publications or presentations arising from this work. More details at
     http://www.quantum-espresso.org/quote

     Parallel version (MPI), running on    24 processors
     R & G space division:  proc/nbgrp/npool/nimage =      24
     Waiting for input...
     Reading input from standard input
     Message from routine read_cards :
     DEPRECATED: no units specified in ATOMIC_POSITIONS card
     Message from routine read_cards :
     ATOMIC_POSITIONS: units set to alat

     Current dimensions of program PWSCF are:
     Max number of different atomic species (ntypx) = 10
     Max number of k-points (npk) =  40000
     Max angular momentum in pseudopotentials (lmaxx) =  3

     Atomic positions and unit cell read from directory:
     ./cu.save/


     Subspace diagonalization in iterative solution of the eigenvalue problem:
     a serial algorithm will be used


     Parallelization info
     --------------------
     sticks:   dense  smooth     PW     G-vecs:    dense   smooth      PW
     Min           8       8      3                   75       75      16
     Max           9       9      4                   76       76      18
     Sum         199     199     73                 1807     1807     411



     bravais-lattice index     =            2
     lattice parameter (alat)  =       6.8220  a.u.
     unit-cell volume          =      79.3734 (a.u.)^3
     number of atoms/cell      =            1
     number of atomic types    =            1
     number of electrons       =        11.00
     number of Kohn-Sham states=           12
     kinetic-energy cutoff     =      30.0000  Ry
     charge density cutoff     =     120.0000  Ry
     Exchange-correlation      =  SLA  PZ   NOGX NOGC ( 1  1  0  0 0 0)

     celldm(1)=   6.822000  celldm(2)=   0.000000  celldm(3)=   0.000000
     celldm(4)=   0.000000  celldm(5)=   0.000000  celldm(6)=   0.000000

     crystal axes: (cart. coord. in units of alat)
               a(1) = (  -0.500000   0.000000   0.500000 )  
               a(2) = (   0.000000   0.500000   0.500000 )  
               a(3) = (  -0.500000   0.500000   0.000000 )  

     reciprocal axes: (cart. coord. in units 2 pi/alat)
               b(1) = ( -1.000000 -1.000000  1.000000 )  
               b(2) = (  1.000000  1.000000  1.000000 )  
               b(3) = ( -1.000000  1.000000 -1.000000 )  


     PseudoPot. # 1 for Cu read from file:
     ../../pseudo/Cu.pz-n-van_ak.UPF
     MD5 check sum: d235ad3acf3125f396d1641db3965603
     Pseudo is Ultrasoft + core correction, Zval = 11.0
     Generated by new atomic code, or converted to UPF format
     Using radial grid of  867 points,  6 beta functions with: 
                l(1) =   0
                l(2) =   0
                l(3) =   1
                l(4) =   1
                l(5) =   2
                l(6) =   2
     Q(r) pseudized with  8 coefficients,  rinner =    1.400   1.400   1.400
                                                       1.400   1.400

     atomic species   valence    mass     pseudopotential
        Cu            11.00    63.54600     Cu( 1.00)

     No symmetry found



   Cartesian axes

     site n.     atom                  positions (alat units)
         1           Cu  tau(   1) = (   0.0000000   0.0000000   0.0000000  )

     number of k points=    64  Marzari-Vanderbilt smearing, width (Ry)=  0.0200
                       cart. coord. in units 2pi/alat
        k(    1) = (   0.0000000   0.0000000   0.0000000), wk =   0.0312500
        k(    2) = (   0.2500000   0.2500000   0.2500000), wk =   0.0312500
        k(    3) = (   0.5000000   0.5000000   0.5000000), wk =   0.0312500
        k(    4) = (   0.7500000   0.7500000   0.7500000), wk =   0.0312500
        k(    5) = (  -0.2500000  -0.2500000   0.2500000), wk =   0.0312500
        k(    6) = (   0.0000000   0.0000000   0.5000000), wk =   0.0312500
        k(    7) = (   0.2500000   0.2500000   0.7500000), wk =   0.0312500
        k(    8) = (   0.5000000   0.5000000   1.0000000), wk =   0.0312500
        k(    9) = (  -0.5000000  -0.5000000   0.5000000), wk =   0.0312500
        k(   10) = (  -0.2500000  -0.2500000   0.7500000), wk =   0.0312500
        k(   11) = (   0.0000000   0.0000000   1.0000000), wk =   0.0312500
        k(   12) = (   0.2500000   0.2500000   1.2500000), wk =   0.0312500
        k(   13) = (  -0.7500000  -0.7500000   0.7500000), wk =   0.0312500
        k(   14) = (  -0.5000000  -0.5000000   1.0000000), wk =   0.0312500
        k(   15) = (  -0.2500000  -0.2500000   1.2500000), wk =   0.0312500
        k(   16) = (   0.0000000   0.0000000   1.5000000), wk =   0.0312500
        k(   17) = (  -0.2500000   0.2500000  -0.2500000), wk =   0.0312500
        k(   18) = (   0.0000000   0.5000000   0.0000000), wk =   0.0312500
        k(   19) = (   0.2500000   0.7500000   0.2500000), wk =   0.0312500
        k(   20) = (   0.5000000   1.0000000   0.5000000), wk =   0.0312500
        k(   21) = (  -0.5000000   0.0000000   0.0000000), wk =   0.0312500
        k(   22) = (  -0.2500000   0.2500000   0.2500000), wk =   0.0312500
        k(   23) = (   0.0000000   0.5000000   0.5000000), wk =   0.0312500
        k(   24) = (   0.2500000   0.7500000   0.7500000), wk =   0.0312500
        k(   25) = (  -0.7500000  -0.2500000   0.2500000), wk =   0.0312500
        k(   26) = (  -0.5000000   0.0000000   0.5000000), wk =   0.0312500
        k(   27) = (  -0.2500000   0.2500000   0.7500000), wk =   0.0312500
        k(   28) = (   0.0000000   0.5000000   1.0000000), wk =   0.0312500
        k(   29) = (  -1.0000000  -0.5000000   0.5000000), wk =   0.0312500
        k(   30) = (  -0.7500000  -0.2500000   0.7500000), wk =   0.0312500
        k(   31) = (  -0.5000000   0.0000000   1.0000000), wk =   0.0312500
        k(   32) = (  -0.2500000   0.2500000   1.2500000), wk =   0.0312500
        k(   33) = (  -0.5000000   0.5000000  -0.5000000), wk =   0.0312500
        k(   34) = (  -0.2500000   0.7500000  -0.2500000), wk =   0.0312500
        k(   35) = (   0.0000000   1.0000000   0.0000000), wk =   0.0312500
        k(   36) = (   0.2500000   1.2500000   0.2500000), wk =   0.0312500
        k(   37) = (  -0.7500000   0.2500000  -0.2500000), wk =   0.0312500
        k(   38) = (  -0.5000000   0.5000000   0.0000000), wk =   0.0312500
        k(   39) = (  -0.2500000   0.7500000   0.2500000), wk =   0.0312500
        k(   40) = (   0.0000000   1.0000000   0.5000000), wk =   0.0312500
        k(   41) = (  -1.0000000   0.0000000   0.0000000), wk =   0.0312500
        k(   42) = (  -0.7500000   0.2500000   0.2500000), wk =   0.0312500
        k(   43) = (  -0.5000000   0.5000000   0.5000000), wk =   0.0312500
        k(   44) = (  -0.2500000   0.7500000   0.7500000), wk =   0.0312500
        k(   45) = (  -1.2500000  -0.2500000   0.2500000), wk =   0.0312500
        k(   46) = (  -1.0000000   0.0000000   0.5000000), wk =   0.0312500
        k(   47) = (  -0.7500000   0.2500000   0.7500000), wk =   0.0312500
        k(   48) = (  -0.5000000   0.5000000   1.0000000), wk =   0.0312500
        k(   49) = (  -0.7500000   0.7500000  -0.7500000), wk =   0.0312500
        k(   50) = (  -0.5000000   1.0000000  -0.5000000), wk =   0.0312500
        k(   51) = (  -0.2500000   1.2500000  -0.2500000), wk =   0.0312500
        k(   52) = (   0.0000000   1.5000000   0.0000000), wk =   0.0312500
        k(   53) = (  -1.0000000   0.5000000  -0.5000000), wk =   0.0312500
        k(   54) = (  -0.7500000   0.7500000  -0.2500000), wk =   0.0312500
        k(   55) = (  -0.5000000   1.0000000   0.0000000), wk =   0.0312500
        k(   56) = (  -0.2500000   1.2500000   0.2500000), wk =   0.0312500
        k(   57) = (  -1.2500000   0.2500000  -0.2500000), wk =   0.0312500
        k(   58) = (  -1.0000000   0.5000000   0.0000000), wk =   0.0312500
        k(   59) = (  -0.7500000   0.7500000   0.2500000), wk =   0.0312500
        k(   60) = (  -0.5000000   1.0000000   0.5000000), wk =   0.0312500
        k(   61) = (  -1.5000000   0.0000000   0.0000000), wk =   0.0312500
        k(   62) = (  -1.2500000   0.2500000   0.2500000), wk =   0.0312500
        k(   63) = (  -1.0000000   0.5000000   0.5000000), wk =   0.0312500
        k(   64) = (  -0.7500000   0.7500000   0.7500000), wk =   0.0312500

     Dense  grid:     1807 G-vectors     FFT dimensions: (  18,  18,  18)

     Estimated max dynamical RAM per process >       0.06MB

     Estimated total allocated dynamical RAM >       1.49MB

===================================================================================
=   BAD TERMINATION OF ONE OF YOUR APPLICATION PROCESSES
=   RANK 0 PID 16730 RUNNING AT s04n05
=   KILLED BY SIGNAL: 9 (Killed)
===================================================================================

===================================================================================
=   BAD TERMINATION OF ONE OF YOUR APPLICATION PROCESSES
=   RANK 1 PID 16731 RUNNING AT s04n05
=   KILLED BY SIGNAL: 9 (Killed)
===================================================================================

===================================================================================
=   BAD TERMINATION OF ONE OF YOUR APPLICATION PROCESSES
=   RANK 2 PID 16732 RUNNING AT s04n05
=   KILLED BY SIGNAL: 9 (Killed)
===================================================================================

===================================================================================
=   BAD TERMINATION OF ONE OF YOUR APPLICATION PROCESSES
=   RANK 3 PID 16733 RUNNING AT s04n05
=   KILLED BY SIGNAL: 9 (Killed)
===================================================================================

===================================================================================
=   BAD TERMINATION OF ONE OF YOUR APPLICATION PROCESSES
=   RANK 4 PID 16734 RUNNING AT s04n05
=   KILLED BY SIGNAL: 9 (Killed)
===================================================================================

===================================================================================
=   BAD TERMINATION OF ONE OF YOUR APPLICATION PROCESSES
=   RANK 5 PID 16735 RUNNING AT s04n05
=   KILLED BY SIGNAL: 9 (Killed)
===================================================================================

===================================================================================
=   BAD TERMINATION OF ONE OF YOUR APPLICATION PROCESSES
=   RANK 6 PID 16736 RUNNING AT s04n05
=   KILLED BY SIGNAL: 9 (Killed)
===================================================================================

===================================================================================
=   BAD TERMINATION OF ONE OF YOUR APPLICATION PROCESSES
=   RANK 7 PID 16737 RUNNING AT s04n05
=   KILLED BY SIGNAL: 9 (Killed)
===================================================================================

===================================================================================
=   BAD TERMINATION OF ONE OF YOUR APPLICATION PROCESSES
=   RANK 8 PID 16738 RUNNING AT s04n05
=   KILLED BY SIGNAL: 9 (Killed)
===================================================================================

===================================================================================
=   BAD TERMINATION OF ONE OF YOUR APPLICATION PROCESSES
=   RANK 9 PID 16739 RUNNING AT s04n05
=   KILLED BY SIGNAL: 9 (Killed)
===================================================================================

===================================================================================
=   BAD TERMINATION OF ONE OF YOUR APPLICATION PROCESSES
=   RANK 10 PID 16740 RUNNING AT s04n05
=   KILLED BY SIGNAL: 9 (Killed)
===================================================================================

===================================================================================
=   BAD TERMINATION OF ONE OF YOUR APPLICATION PROCESSES
=   RANK 11 PID 16741 RUNNING AT s04n05
=   KILLED BY SIGNAL: 9 (Killed)
===================================================================================

===================================================================================
=   BAD TERMINATION OF ONE OF YOUR APPLICATION PROCESSES
=   RANK 12 PID 16742 RUNNING AT s04n05
=   KILLED BY SIGNAL: 9 (Killed)
===================================================================================

===================================================================================
=   BAD TERMINATION OF ONE OF YOUR APPLICATION PROCESSES
=   RANK 13 PID 16743 RUNNING AT s04n05
=   KILLED BY SIGNAL: 9 (Killed)
===================================================================================

===================================================================================
=   BAD TERMINATION OF ONE OF YOUR APPLICATION PROCESSES
=   RANK 14 PID 16744 RUNNING AT s04n05
=   KILLED BY SIGNAL: 9 (Killed)
===================================================================================

===================================================================================
=   BAD TERMINATION OF ONE OF YOUR APPLICATION PROCESSES
=   RANK 15 PID 16745 RUNNING AT s04n05
=   KILLED BY SIGNAL: 9 (Killed)
===================================================================================

===================================================================================
=   BAD TERMINATION OF ONE OF YOUR APPLICATION PROCESSES
=   RANK 16 PID 16746 RUNNING AT s04n05
=   KILLED BY SIGNAL: 9 (Killed)
===================================================================================

===================================================================================
=   BAD TERMINATION OF ONE OF YOUR APPLICATION PROCESSES
=   RANK 17 PID 16747 RUNNING AT s04n05
=   KILLED BY SIGNAL: 9 (Killed)
===================================================================================
