
     Program PWSCF v.6.1 (svn rev. 13369) starts on 23Jul2021 at 16:18:51 

     This program is part of the open-source Quantum ESPRESSO suite
     for quantum simulation of materials; please cite
         "P. Giannozzi et al., J. Phys.:Condens. Matter 21 395502 (2009);
          URL http://www.quantum-espresso.org", 
     in publications or presentations arising from this work. More details at
     http://www.quantum-espresso.org/quote

     Parallel version (MPI), running on    24 processors
     R & G space division:  proc/nbgrp/npool/nimage =      24
     Waiting for input...
     Reading input from standard input

     Current dimensions of program PWSCF are:
     Max number of different atomic species (ntypx) = 10
     Max number of k-points (npk) =  40000
     Max angular momentum in pseudopotentials (lmaxx) =  3
               file H.pz-vbc.UPF: wavefunction(s)  1S renormalized

     gamma-point specific algorithms are used

     Subspace diagonalization in iterative solution of the eigenvalue problem:
     a serial algorithm will be used


     Parallelization info
     --------------------
     sticks:   dense  smooth     PW     G-vecs:    dense   smooth      PW
     Min          76      76     18                 2452     2452     298
     Max          78      78     20                 2460     2460     308
     Sum        1829    1829    457                58893    58893    7249



     bravais-lattice index     =            1
     lattice parameter (alat)  =      12.0000  a.u.
     unit-cell volume          =    1728.0000 (a.u.)^3
     number of atoms/cell      =            5
     number of atomic types    =            2
     number of electrons       =         8.00
     number of Kohn-Sham states=            4
     kinetic-energy cutoff     =      40.0000  Ry
     charge density cutoff     =     160.0000  Ry
     convergence threshold     =      1.0E-10
     mixing beta               =       0.2000
     number of iterations used =            8  plain     mixing
     Exchange-correlation      =  SLA  PZ   NOGX NOGC ( 1  1  0  0 0 0)

     celldm(1)=  12.000000  celldm(2)=   0.000000  celldm(3)=   0.000000
     celldm(4)=   0.000000  celldm(5)=   0.000000  celldm(6)=   0.000000

     crystal axes: (cart. coord. in units of alat)
               a(1) = (   1.000000   0.000000   0.000000 )  
               a(2) = (   0.000000   1.000000   0.000000 )  
               a(3) = (   0.000000   0.000000   1.000000 )  

     reciprocal axes: (cart. coord. in units 2 pi/alat)
               b(1) = (  1.000000  0.000000  0.000000 )  
               b(2) = (  0.000000  1.000000  0.000000 )  
               b(3) = (  0.000000  0.000000  1.000000 )  


     PseudoPot. # 1 for Si read from file:
     ../../pseudo/Si.pz-vbc.UPF
     MD5 check sum: bcd8ae23180a2f07cc8655fe7dcd9644
     Pseudo is Norm-conserving, Zval =  4.0
     Generated by new atomic code, or converted to UPF format
     Using radial grid of  431 points,  2 beta functions with: 
                l(1) =   0
                l(2) =   1

     PseudoPot. # 2 for H  read from file:
     ../../pseudo/H.pz-vbc.UPF
     MD5 check sum: 90becb985b714f09656c73597998d266
     Pseudo is Norm-conserving, Zval =  1.0
     Generated by new atomic code, or converted to UPF format
     Using radial grid of  131 points,  0 beta functions with: 

     atomic species   valence    mass     pseudopotential
        Si             4.00    55.00000     Si( 1.00)
        H              1.00     1.00000     H ( 1.00)

     24 Sym. Ops. (no inversion) found



   Cartesian axes

     site n.     atom                  positions (alat units)
         1           Si  tau(   1) = (   0.0000000   0.0000000   0.0000000  )
         2           H   tau(   2) = (   0.1663827   0.1663827   0.1663827  )
         3           H   tau(   3) = (   0.1663827  -0.1663827  -0.1663827  )
         4           H   tau(   4) = (  -0.1663827   0.1663827  -0.1663827  )
         5           H   tau(   5) = (  -0.1663827  -0.1663827   0.1663827  )

     number of k points=     1
                       cart. coord. in units 2pi/alat
        k(    1) = (   0.0000000   0.0000000   0.0000000), wk =   2.0000000

     Dense  grid:    29447 G-vectors     FFT dimensions: (  50,  50,  50)

     Estimated max dynamical RAM per process >       1.04MB

     Estimated total allocated dynamical RAM >      25.05MB

     Initial potential from superposition of free atoms

     starting charge    7.99940, renormalised to    8.00000

     negative rho (up, down):  1.526E-05 0.000E+00
     Starting wfc are random

     total cpu time spent up to now is        0.8 secs

     per-process dynamical memory:    15.0 Mb

     Self-consistent Calculation

     iteration #  1     ecut=    40.00 Ry     beta=0.20
     CG style diagonalization
     ethr =  1.00E-02,  avg # of iterations =  6.8

     negative rho (up, down):  9.850E-06 0.000E+00

     total cpu time spent up to now is        0.8 secs

     total energy              =     -12.27331639 Ry
     Harris-Foulkes estimate   =     -12.29490546 Ry
     estimated scf accuracy    <       0.13688329 Ry

     iteration #  2     ecut=    40.00 Ry     beta=0.20
     CG style diagonalization
     ethr =  1.71E-03,  avg # of iterations =  3.0

     negative rho (up, down):  4.142E-07 0.000E+00

     total cpu time spent up to now is        0.9 secs

     total energy              =     -12.24715478 Ry
     Harris-Foulkes estimate   =     -12.27982564 Ry
     estimated scf accuracy    <       0.07794749 Ry

     iteration #  3     ecut=    40.00 Ry     beta=0.20
     CG style diagonalization
     ethr =  9.74E-04,  avg # of iterations =  3.5

     negative rho (up, down):  3.197E-07 0.000E+00

     total cpu time spent up to now is        0.9 secs

     total energy              =     -12.25573764 Ry
     Harris-Foulkes estimate   =     -12.25602715 Ry
     estimated scf accuracy    <       0.00167005 Ry

     iteration #  4     ecut=    40.00 Ry     beta=0.20
     CG style diagonalization
     ethr =  2.09E-05,  avg # of iterations =  4.2

     negative rho (up, down):  2.594E-07 0.000E+00

     total cpu time spent up to now is        0.9 secs

     total energy              =     -12.25622323 Ry
     Harris-Foulkes estimate   =     -12.25643695 Ry
     estimated scf accuracy    <       0.00167727 Ry

     iteration #  5     ecut=    40.00 Ry     beta=0.20
     CG style diagonalization
     ethr =  2.09E-05,  avg # of iterations =  3.0

     negative rho (up, down):  3.324E-08 0.000E+00

     total cpu time spent up to now is        0.9 secs

     total energy              =     -12.25572537 Ry
     Harris-Foulkes estimate   =     -12.25624321 Ry
     estimated scf accuracy    <       0.00107948 Ry

     iteration #  6     ecut=    40.00 Ry     beta=0.20
     CG style diagonalization
     ethr =  1.35E-05,  avg # of iterations =  4.0

     negative rho (up, down):  3.344E-08 0.000E+00

     total cpu time spent up to now is        0.9 secs

     total energy              =     -12.25616566 Ry
     Harris-Foulkes estimate   =     -12.25618513 Ry
     estimated scf accuracy    <       0.00055319 Ry

     iteration #  7     ecut=    40.00 Ry     beta=0.20
     CG style diagonalization
     ethr =  6.91E-06,  avg # of iterations =  3.0

     negative rho (up, down):  2.275E-08 0.000E+00

     total cpu time spent up to now is        0.9 secs

     total energy              =     -12.25611526 Ry
     Harris-Foulkes estimate   =     -12.25617090 Ry
     estimated scf accuracy    <       0.00050345 Ry

     iteration #  8     ecut=    40.00 Ry     beta=0.20
     CG style diagonalization
     ethr =  6.29E-06,  avg # of iterations =  3.0

     total cpu time spent up to now is        0.9 secs

     total energy              =     -12.25595979 Ry
     Harris-Foulkes estimate   =     -12.25611887 Ry
     estimated scf accuracy    <       0.00035006 Ry

     iteration #  9     ecut=    40.00 Ry     beta=0.20
     CG style diagonalization
     ethr =  4.38E-06,  avg # of iterations =  4.0

     total cpu time spent up to now is        0.9 secs

     total energy              =     -12.25603768 Ry
     Harris-Foulkes estimate   =     -12.25608669 Ry
     estimated scf accuracy    <       0.00016712 Ry

     iteration # 10     ecut=    40.00 Ry     beta=0.20
     CG style diagonalization
     ethr =  2.09E-06,  avg # of iterations =  3.2

     total cpu time spent up to now is        0.9 secs

     total energy              =     -12.25603059 Ry
     Harris-Foulkes estimate   =     -12.25604715 Ry
     estimated scf accuracy    <       0.00005916 Ry

     iteration # 11     ecut=    40.00 Ry     beta=0.20
     CG style diagonalization
     ethr =  7.40E-07,  avg # of iterations =  3.0

     total cpu time spent up to now is        0.9 secs

     total energy              =     -12.25602529 Ry
     Harris-Foulkes estimate   =     -12.25603317 Ry
     estimated scf accuracy    <       0.00001923 Ry

     iteration # 12     ecut=    40.00 Ry     beta=0.20
     CG style diagonalization
     ethr =  2.40E-07,  avg # of iterations =  4.0

     total cpu time spent up to now is        0.9 secs

     total energy              =     -12.25603043 Ry
     Harris-Foulkes estimate   =     -12.25603014 Ry
     estimated scf accuracy    <       0.00000345 Ry

     iteration # 13     ecut=    40.00 Ry     beta=0.20
     CG style diagonalization
     ethr =  4.31E-08,  avg # of iterations =  3.0

     total cpu time spent up to now is        0.9 secs

     total energy              =     -12.25602931 Ry
     Harris-Foulkes estimate   =     -12.25603058 Ry
     estimated scf accuracy    <       0.00000465 Ry

     iteration # 14     ecut=    40.00 Ry     beta=0.20
     CG style diagonalization
     ethr =  4.31E-08,  avg # of iterations =  3.8

     total cpu time spent up to now is        0.9 secs

     total energy              =     -12.25603167 Ry
     Harris-Foulkes estimate   =     -12.25602988 Ry
     estimated scf accuracy    <       0.00000345 Ry

     iteration # 15     ecut=    40.00 Ry     beta=0.20
     CG style diagonalization
     ethr =  4.31E-08,  avg # of iterations =  4.0

     total cpu time spent up to now is        0.9 secs

     total energy              =     -12.25602891 Ry
     Harris-Foulkes estimate   =     -12.25603268 Ry
     estimated scf accuracy    <       0.00001044 Ry

     iteration # 16     ecut=    40.00 Ry     beta=0.20
     CG style diagonalization
     ethr =  4.31E-08,  avg # of iterations =  4.2

     total cpu time spent up to now is        1.0 secs

     total energy              =     -12.25603620 Ry
     Harris-Foulkes estimate   =     -12.25603065 Ry
     estimated scf accuracy    <       0.00000474 Ry

     iteration # 17     ecut=    40.00 Ry     beta=0.20
     CG style diagonalization
     ethr =  4.31E-08,  avg # of iterations =  5.0

     total cpu time spent up to now is        1.0 secs

     total energy              =     -12.25604064 Ry
     Harris-Foulkes estimate   =     -12.25604048 Ry
     estimated scf accuracy    <       0.00003733 Ry

     iteration # 18     ecut=    40.00 Ry     beta=0.20
     CG style diagonalization
     ethr =  4.31E-08,  avg # of iterations =  3.0

     total cpu time spent up to now is        1.0 secs

     total energy              =     -12.25604174 Ry
     Harris-Foulkes estimate   =     -12.25604064 Ry
     estimated scf accuracy    <       0.00003787 Ry

     iteration # 19     ecut=    40.00 Ry     beta=0.20
     CG style diagonalization
     ethr =  4.31E-08,  avg # of iterations =  3.0

     total cpu time spent up to now is        1.0 secs

     total energy              =     -12.25602689 Ry
     Harris-Foulkes estimate   =     -12.25604178 Ry
     estimated scf accuracy    <       0.00004163 Ry

     iteration # 20     ecut=    40.00 Ry     beta=0.20
     CG style diagonalization
     ethr =  4.31E-08,  avg # of iterations =  5.0

     total cpu time spent up to now is        1.0 secs

     total energy              =     -12.25602801 Ry
     Harris-Foulkes estimate   =     -12.25603136 Ry
     estimated scf accuracy    <       0.00000668 Ry

     iteration # 21     ecut=    40.00 Ry     beta=0.20
     CG style diagonalization
     ethr =  4.31E-08,  avg # of iterations =  4.2

     total cpu time spent up to now is        1.0 secs

     total energy              =     -12.25602872 Ry
     Harris-Foulkes estimate   =     -12.25603024 Ry
     estimated scf accuracy    <       0.00000314 Ry

     iteration # 22     ecut=    40.00 Ry     beta=0.20
     CG style diagonalization
     ethr =  3.93E-08,  avg # of iterations =  4.0

     total cpu time spent up to now is        1.0 secs

     total energy              =     -12.25602928 Ry
     Harris-Foulkes estimate   =     -12.25602964 Ry
     estimated scf accuracy    <       0.00000096 Ry

     iteration # 23     ecut=    40.00 Ry     beta=0.20
     CG style diagonalization
     ethr =  1.21E-08,  avg # of iterations =  4.0

     total cpu time spent up to now is        1.0 secs

     total energy              =     -12.25602943 Ry
     Harris-Foulkes estimate   =     -12.25602947 Ry
     estimated scf accuracy    <       0.00000013 Ry

     iteration # 24     ecut=    40.00 Ry     beta=0.20
     CG style diagonalization
     ethr =  1.59E-09,  avg # of iterations =  3.5

     total cpu time spent up to now is        1.0 secs

     total energy              =     -12.25602943 Ry
     Harris-Foulkes estimate   =     -12.25602945 Ry
     estimated scf accuracy    <       0.00000004 Ry

     iteration # 25     ecut=    40.00 Ry     beta=0.20
     CG style diagonalization
     ethr =  4.75E-10,  avg # of iterations =  3.8

     total cpu time spent up to now is        1.0 secs

     total energy              =     -12.25602944 Ry
     Harris-Foulkes estimate   =     -12.25602944 Ry
     estimated scf accuracy    <          7.9E-09 Ry

     iteration # 26     ecut=    40.00 Ry     beta=0.20
     CG style diagonalization
     ethr =  9.87E-11,  avg # of iterations =  4.0

     total cpu time spent up to now is        1.0 secs

     total energy              =     -12.25602944 Ry
     Harris-Foulkes estimate   =     -12.25602944 Ry
     estimated scf accuracy    <          5.6E-10 Ry

     iteration # 27     ecut=    40.00 Ry     beta=0.20
     CG style diagonalization
     ethr =  7.04E-12,  avg # of iterations =  4.0

     total cpu time spent up to now is        1.0 secs

     total energy              =     -12.25602944 Ry
     Harris-Foulkes estimate   =     -12.25602944 Ry
     estimated scf accuracy    <          2.3E-10 Ry

     iteration # 28     ecut=    40.00 Ry     beta=0.20
     CG style diagonalization
     ethr =  2.86E-12,  avg # of iterations =  4.0

     total cpu time spent up to now is        1.0 secs

     total energy              =     -12.25602944 Ry
     Harris-Foulkes estimate   =     -12.25602944 Ry
     estimated scf accuracy    <          1.3E-10 Ry

     iteration # 29     ecut=    40.00 Ry     beta=0.20
     CG style diagonalization
     ethr =  1.61E-12,  avg # of iterations =  3.0

     total cpu time spent up to now is        1.0 secs

     End of self-consistent calculation

          k = 0.0000 0.0000 0.0000 (  3625 PWs)   bands (ev):

   -11.1697  -6.5316  -6.5316  -6.5315

     highest occupied level (ev):    -6.5315

!    total energy              =     -12.25602944 Ry
     Harris-Foulkes estimate   =     -12.25602944 Ry
     estimated scf accuracy    <          1.2E-11 Ry

     The total energy is the sum of the following terms:

     one-electron contribution =     -11.03613871 Ry
     hartree contribution      =       6.19825583 Ry
     xc contribution           =      -4.51151979 Ry
     ewald contribution        =      -2.90662677 Ry

     convergence has been achieved in  29 iterations

     Writing output data file sil.save

     init_run     :      0.16s CPU      0.29s WALL (       1 calls)
     electrons    :      0.20s CPU      0.25s WALL (       1 calls)

     Called by init_run:
     wfcinit      :      0.01s CPU      0.05s WALL (       1 calls)
     potinit      :      0.01s CPU      0.01s WALL (       1 calls)

     Called by electrons:
     c_bands      :      0.11s CPU      0.13s WALL (      29 calls)
     sum_band     :      0.02s CPU      0.02s WALL (      29 calls)
     v_of_rho     :      0.04s CPU      0.04s WALL (      30 calls)
     mix_rho      :      0.02s CPU      0.02s WALL (      29 calls)

     Called by c_bands:
     init_us_2    :      0.00s CPU      0.00s WALL (      59 calls)
     rcgdiagg     :      0.09s CPU      0.10s WALL (      29 calls)
     wfcrot       :      0.02s CPU      0.07s WALL (      29 calls)

     Called by sum_band:

     Called by *cgdiagg:
     h_psi        :      0.10s CPU      0.13s WALL (     358 calls)
     rdiaghg      :      0.00s CPU      0.02s WALL (      29 calls)

     Called by h_psi:
     h_psi:pot    :      0.10s CPU      0.13s WALL (     358 calls)
     h_psi:calbec :      0.01s CPU      0.02s WALL (     358 calls)
     vloc_psi     :      0.09s CPU      0.10s WALL (     358 calls)
     add_vuspsi   :      0.00s CPU      0.01s WALL (     358 calls)
     h_1psi       :      0.08s CPU      0.09s WALL (     329 calls)

     General routines
     calbec       :      0.01s CPU      0.02s WALL (     687 calls)
     fft          :      0.01s CPU      0.08s WALL (     119 calls)
     fftw         :      0.09s CPU      0.10s WALL (     832 calls)
     davcio       :      0.00s CPU      0.00s WALL (       1 calls)

     Parallel routines
     fft_scatter  :      0.05s CPU      0.06s WALL (     951 calls)

     PWSCF        :     0.49s CPU         1.12s WALL


   This run was terminated on:  16:18:52  23Jul2021            

=------------------------------------------------------------------------------=
   JOB DONE.
=------------------------------------------------------------------------------=
