
     Program PWSCF v.6.1 (svn rev. 13369) starts on 23Jul2021 at 16:53:28 

     This program is part of the open-source Quantum ESPRESSO suite
     for quantum simulation of materials; please cite
         "P. Giannozzi et al., J. Phys.:Condens. Matter 21 395502 (2009);
          URL http://www.quantum-espresso.org", 
     in publications or presentations arising from this work. More details at
     http://www.quantum-espresso.org/quote

     Parallel version (MPI), running on    24 processors
     R & G space division:  proc/nbgrp/npool/nimage =      24
     Waiting for input...
     Reading input from standard input

     Current dimensions of program PWSCF are:
     Max number of different atomic species (ntypx) = 10
     Max number of k-points (npk) =  40000
     Max angular momentum in pseudopotentials (lmaxx) =  3

     Subspace diagonalization in iterative solution of the eigenvalue problem:
     a serial algorithm will be used


     Parallelization info
     --------------------
     sticks:   dense  smooth     PW     G-vecs:    dense   smooth      PW
     Min          15      15      5                  185      185      37
     Max          16      16      6                  188      188      40
     Sum         361     361    121                 4477     4477     893



     bravais-lattice index     =            2
     lattice parameter (alat)  =      10.2000  a.u.
     unit-cell volume          =     265.3020 (a.u.)^3
     number of atoms/cell      =            2
     number of atomic types    =            1
     number of electrons       =         8.00
     number of Kohn-Sham states=            4
     kinetic-energy cutoff     =      25.0000  Ry
     charge density cutoff     =     100.0000  Ry
     convergence threshold     =      1.0E-12
     mixing beta               =       0.7000
     number of iterations used =            8  plain     mixing
     Exchange-correlation      =  SLA  PW   PBE  PBE ( 1  4  3  4 0 0)

     celldm(1)=  10.200000  celldm(2)=   0.000000  celldm(3)=   0.000000
     celldm(4)=   0.000000  celldm(5)=   0.000000  celldm(6)=   0.000000

     crystal axes: (cart. coord. in units of alat)
               a(1) = (  -0.500000   0.000000   0.500000 )  
               a(2) = (   0.000000   0.500000   0.500000 )  
               a(3) = (  -0.500000   0.500000   0.000000 )  

     reciprocal axes: (cart. coord. in units 2 pi/alat)
               b(1) = ( -1.000000 -1.000000  1.000000 )  
               b(2) = (  1.000000  1.000000  1.000000 )  
               b(3) = ( -1.000000  1.000000 -1.000000 )  


     PseudoPot. # 1 for Si read from file:
     ../../pseudo/Si.pbe-n-van.UPF
     MD5 check sum: 8a97496598b7338af554a5de8957bfee
     Pseudo is Ultrasoft + core correction, Zval =  4.0
     Generated by new atomic code, or converted to UPF format
     Using radial grid of  899 points,  6 beta functions with: 
                l(1) =   0
                l(2) =   0
                l(3) =   1
                l(4) =   1
                l(5) =   2
                l(6) =   2
     Q(r) pseudized with  8 coefficients,  rinner =    0.900   0.900   0.900
                                                       0.900   0.900

     atomic species   valence    mass     pseudopotential
        Si             4.00    28.00000     Si( 1.00)

     48 Sym. Ops., with inversion, found (24 have fractional translation)



   Cartesian axes

     site n.     atom                  positions (alat units)
         1           Si  tau(   1) = (   0.2500000   0.2500000   0.2500000  )
         2           Si  tau(   2) = (   0.0000000   0.0000000   0.0000000  )

     number of k points=    47
                       cart. coord. in units 2pi/alat
        k(    1) = (   0.0000000   0.0000000   0.0000000), wk =   0.0020000
        k(    2) = (  -0.1000000   0.1000000  -0.1000000), wk =   0.0160000
        k(    3) = (  -0.2000000   0.2000000  -0.2000000), wk =   0.0160000
        k(    4) = (  -0.3000000   0.3000000  -0.3000000), wk =   0.0160000
        k(    5) = (  -0.4000000   0.4000000  -0.4000000), wk =   0.0160000
        k(    6) = (   0.5000000  -0.5000000   0.5000000), wk =   0.0080000
        k(    7) = (   0.0000000   0.2000000   0.0000000), wk =   0.0120000
        k(    8) = (  -0.1000000   0.3000000  -0.1000000), wk =   0.0480000
        k(    9) = (  -0.2000000   0.4000000  -0.2000000), wk =   0.0480000
        k(   10) = (  -0.3000000   0.5000000  -0.3000000), wk =   0.0480000
        k(   11) = (   0.6000000  -0.4000000   0.6000000), wk =   0.0480000
        k(   12) = (   0.5000000  -0.3000000   0.5000000), wk =   0.0480000
        k(   13) = (   0.4000000  -0.2000000   0.4000000), wk =   0.0480000
        k(   14) = (   0.3000000  -0.1000000   0.3000000), wk =   0.0480000
        k(   15) = (   0.2000000   0.0000000   0.2000000), wk =   0.0240000
        k(   16) = (   0.0000000   0.4000000   0.0000000), wk =   0.0120000
        k(   17) = (  -0.1000000   0.5000000  -0.1000000), wk =   0.0480000
        k(   18) = (  -0.2000000   0.6000000  -0.2000000), wk =   0.0480000
        k(   19) = (   0.7000000  -0.3000000   0.7000000), wk =   0.0480000
        k(   20) = (   0.6000000  -0.2000000   0.6000000), wk =   0.0480000
        k(   21) = (   0.5000000  -0.1000000   0.5000000), wk =   0.0480000
        k(   22) = (   0.4000000   0.0000000   0.4000000), wk =   0.0240000
        k(   23) = (   0.0000000   0.6000000   0.0000000), wk =   0.0120000
        k(   24) = (  -0.1000000   0.7000000  -0.1000000), wk =   0.0480000
        k(   25) = (   0.8000000  -0.2000000   0.8000000), wk =   0.0480000
        k(   26) = (   0.7000000  -0.1000000   0.7000000), wk =   0.0480000
        k(   27) = (   0.6000000  -0.0000000   0.6000000), wk =   0.0240000
        k(   28) = (   0.0000000   0.8000000   0.0000000), wk =   0.0120000
        k(   29) = (   0.9000000  -0.1000000   0.9000000), wk =   0.0480000
        k(   30) = (   0.8000000   0.0000000   0.8000000), wk =   0.0240000
        k(   31) = (   0.0000000  -1.0000000   0.0000000), wk =   0.0060000
        k(   32) = (  -0.2000000   0.4000000   0.0000000), wk =   0.0480000
        k(   33) = (  -0.3000000   0.5000000  -0.1000000), wk =   0.0960000
        k(   34) = (   0.6000000  -0.4000000   0.8000000), wk =   0.0960000
        k(   35) = (   0.5000000  -0.3000000   0.7000000), wk =   0.0480000
        k(   36) = (  -0.2000000   0.6000000   0.0000000), wk =   0.0480000
        k(   37) = (   0.7000000  -0.3000000   0.9000000), wk =   0.0960000
        k(   38) = (   0.6000000  -0.2000000   0.8000000), wk =   0.0960000
        k(   39) = (   0.5000000  -0.1000000   0.7000000), wk =   0.0960000
        k(   40) = (   0.4000000   0.0000000   0.6000000), wk =   0.0480000
        k(   41) = (   0.8000000  -0.2000000   1.0000000), wk =   0.0480000
        k(   42) = (   0.7000000  -0.1000000   0.9000000), wk =   0.0960000
        k(   43) = (   0.6000000   0.0000000   0.8000000), wk =   0.0480000
        k(   44) = (  -0.2000000  -1.0000000   0.0000000), wk =   0.0240000
        k(   45) = (   0.6000000  -0.2000000   1.0000000), wk =   0.0480000
        k(   46) = (   0.5000000  -0.1000000   0.9000000), wk =   0.0480000
        k(   47) = (  -0.4000000  -1.0000000   0.0000000), wk =   0.0240000

     Dense  grid:     4477 G-vectors     FFT dimensions: (  24,  24,  24)

     Estimated max dynamical RAM per process >       0.20MB

     Estimated total allocated dynamical RAM >       4.74MB

     Check: negative/imaginary core charge=   -0.000002    0.000000

     Initial potential from superposition of free atoms

     starting charge    7.99866, renormalised to    8.00000
     Starting wfc are    8 randomized atomic wfcs

     total cpu time spent up to now is        0.6 secs

     per-process dynamical memory:    16.0 Mb

     Self-consistent Calculation

     iteration #  1     ecut=    25.00 Ry     beta=0.70
     CG style diagonalization
     ethr =  1.00E-02,  avg # of iterations =  2.9

     Threshold (ethr) on eigenvalues was too large:
     Diagonalizing with lowered threshold

     CG style diagonalization
     ethr =  7.09E-04,  avg # of iterations =  2.0

     total cpu time spent up to now is        0.7 secs

     total energy              =     -19.18930375 Ry
     Harris-Foulkes estimate   =     -19.20355885 Ry
     estimated scf accuracy    <       0.05761820 Ry

     iteration #  2     ecut=    25.00 Ry     beta=0.70
     CG style diagonalization
     ethr =  7.20E-04,  avg # of iterations =  3.0

     total cpu time spent up to now is        0.8 secs

          k = 0.0000 0.0000 0.0000     band energies (ev):

    -5.7458   6.3292   6.3292   6.3293

          k =-0.1000 0.1000-0.1000     band energies (ev):

    -5.6130   5.1861   6.1288   6.1289

          k =-0.2000 0.2000-0.2000     band energies (ev):

    -5.2215   3.3066   5.7443   5.7444

          k =-0.3000 0.3000-0.3000     band energies (ev):

    -4.5962   1.4973   5.4064   5.4064

          k =-0.4000 0.4000-0.4000     band energies (ev):

    -3.8340  -0.0020   5.1922   5.1922

          k = 0.5000-0.5000 0.5000     band energies (ev):

    -3.3712  -0.7144   5.1199   5.1199

          k = 0.0000 0.2000 0.0000     band energies (ev):

    -5.5694   5.4079   5.7451   5.7451

          k =-0.1000 0.3000-0.1000     band energies (ev):

    -5.2623   3.8762   5.3049   5.4863

          k =-0.2000 0.4000-0.2000     band energies (ev):

    -4.7101   2.0919   4.9828   5.0498

          k =-0.3000 0.5000-0.3000     band energies (ev):

    -3.9732   0.4945   4.6333   4.8347

          k = 0.6000-0.4000 0.6000     band energies (ev):

    -3.3168  -0.5628   4.3383   4.8691

          k = 0.5000-0.3000 0.5000     band energies (ev):

    -3.4893  -0.3086   4.2065   5.0721

          k = 0.4000-0.2000 0.4000     band energies (ev):

    -4.2334   0.9964   4.2646   5.4113

          k = 0.3000-0.1000 0.3000     band energies (ev):

    -4.9208   2.6705   4.5398   5.8223

          k = 0.2000 0.0000 0.2000     band energies (ev):

    -5.3941   4.3016   5.1530   6.1526

          k = 0.0000 0.4000 0.0000     band energies (ev):

    -5.0410   3.7199   4.8220   4.8221

          k =-0.1000 0.5000-0.1000     band energies (ev):

    -4.5680   2.4538   4.3125   4.4696

          k =-0.2000 0.6000-0.2000     band energies (ev):

    -3.8811   0.9913   3.6775   4.3086

          k = 0.7000-0.3000 0.7000     band energies (ev):

    -3.1351  -0.2163   3.1605   4.3540

          k = 0.6000-0.2000 0.6000     band energies (ev):

    -2.9778  -0.4300   2.8558   4.5963

          k = 0.5000-0.1000 0.5000     band energies (ev):

    -3.6461   0.5779   2.8304   4.9998

          k = 0.4000 0.0000 0.4000     band energies (ev):

    -4.3769   1.8372   3.2853   5.4769

          k = 0.0000 0.6000 0.0000     band energies (ev):

    -4.1741   1.9102   4.0714   4.0714

          k =-0.1000 0.7000-0.1000     band energies (ev):

    -3.5514   0.8906   3.4343   3.8641

          k = 0.8000-0.2000 0.8000     band energies (ev):

    -2.7874  -0.1322   2.5892   3.8713

          k = 0.7000-0.1000 0.7000     band energies (ev):

    -2.3571  -0.6196   2.0247   4.0903

          k = 0.6000-0.0000 0.6000     band energies (ev):

    -2.9065  -0.0198   1.9973   4.4928

          k = 0.0000 0.8000 0.0000     band energies (ev):

    -2.9931   0.1244   3.6006   3.6006

          k = 0.9000-0.1000 0.9000     band energies (ev):

    -2.2521  -0.7279   3.0018   3.5516

          k = 0.8000 0.0000 0.8000     band energies (ev):

    -1.7640  -1.1568   2.1997   3.7214

          k = 0.0000-1.0000 0.0000     band energies (ev):

    -1.5391  -1.5390   3.4411   3.4411

          k =-0.2000 0.4000 0.0000     band energies (ev):

    -4.8721   2.9519   4.2199   5.3513

          k =-0.3000 0.5000-0.1000     band energies (ev):

    -4.2514   1.5215   3.6277   4.9698

          k = 0.6000-0.4000 0.8000     band energies (ev):

    -3.4905   0.1340   3.3981   4.6131

          k = 0.5000-0.3000 0.7000     band energies (ev):

    -3.0194  -0.5585   3.3394   4.4723

          k =-0.2000 0.6000 0.0000     band energies (ev):

    -4.0215   1.5461   3.4827   4.2180

          k = 0.7000-0.3000 0.9000     band energies (ev):

    -3.2887   0.4268   2.8561   3.8820

          k = 0.6000-0.2000 0.8000     band energies (ev):

    -2.6244  -0.4548   2.4424   3.8256

          k = 0.5000-0.1000 0.7000     band energies (ev):

    -2.8301  -0.1897   2.2868   4.0703

          k = 0.4000 0.0000 0.6000     band energies (ev):

    -3.5801   0.7767   2.5892   4.5187

          k = 0.8000-0.2000 1.0000     band energies (ev):

    -2.8720   0.0385   3.0655   3.3961

          k = 0.7000-0.1000 0.9000     band energies (ev):

    -2.1196  -0.7475   2.3467   3.3041

          k = 0.6000 0.0000 0.8000     band energies (ev):

    -2.1224  -0.7230   1.9217   3.5786

          k =-0.2000-1.0000 0.0000     band energies (ev):

    -1.4837  -1.4837   3.0213   3.0214

          k = 0.6000-0.2000 1.0000     band energies (ev):

    -2.5436  -0.2642   2.2881   3.2917

          k = 0.5000-0.1000 0.9000     band energies (ev):

    -2.0219  -0.7816   2.1266   3.0354

          k =-0.4000-1.0000 0.0000     band energies (ev):

    -1.3858  -1.3857   2.4939   2.4940

     highest occupied level (ev):     6.3293

!    total energy              =     -19.19153060 Ry
     Harris-Foulkes estimate   =     -19.19167557 Ry
     estimated scf accuracy    <       0.00238871 Ry

     The total energy is the sum of the following terms:

     one-electron contribution =       5.24672514 Ry
     hartree contribution      =       1.10660697 Ry
     xc contribution           =      -8.65050489 Ry
     ewald contribution        =     -16.89975860 Ry
     scf correction            =       0.00540079 Ry

     iteration #  3     ecut=    25.00 Ry     beta=0.70
     CG style diagonalization
     ethr =  2.99E-05,  avg # of iterations =  3.7

     total cpu time spent up to now is        0.9 secs

     total energy              =     -19.19195094 Ry
     Harris-Foulkes estimate   =     -19.19197105 Ry
     estimated scf accuracy    <       0.00005890 Ry

     iteration #  4     ecut=    25.00 Ry     beta=0.70
     CG style diagonalization
     ethr =  7.36E-07,  avg # of iterations =  4.6

     total cpu time spent up to now is        1.0 secs

          k = 0.0000 0.0000 0.0000     band energies (ev):

    -5.7047   6.3785   6.3785   6.3785

          k =-0.1000 0.1000-0.1000     band energies (ev):

    -5.5718   5.2315   6.1765   6.1765

          k =-0.2000 0.2000-0.2000     band energies (ev):

    -5.1792   3.3499   5.7900   5.7900

          k =-0.3000 0.3000-0.3000     band energies (ev):

    -4.5535   1.5399   5.4510   5.4510

          k =-0.4000 0.4000-0.4000     band energies (ev):

    -3.7918   0.0401   5.2365   5.2365

          k = 0.5000-0.5000 0.5000     band energies (ev):

    -3.3286  -0.6726   5.1642   5.1642

          k = 0.0000 0.2000 0.0000     band energies (ev):

    -5.5272   5.4558   5.7903   5.7903

          k =-0.1000 0.3000-0.1000     band energies (ev):

    -5.2200   3.9209   5.3483   5.5315

          k =-0.2000 0.4000-0.2000     band energies (ev):

    -4.6675   2.1352   5.0254   5.0938

          k =-0.3000 0.5000-0.3000     band energies (ev):

    -3.9303   0.5371   4.6766   4.8771

          k = 0.6000-0.4000 0.6000     band energies (ev):

    -3.2744  -0.5208   4.3810   4.9120

          k = 0.5000-0.3000 0.5000     band energies (ev):

    -3.4461  -0.2664   4.2488   5.1159

          k = 0.4000-0.2000 0.4000     band energies (ev):

    -4.1907   1.0392   4.3066   5.4564

          k = 0.3000-0.1000 0.3000     band energies (ev):

    -4.8783   2.7141   4.5817   5.8691

          k = 0.2000 0.0000 0.2000     band energies (ev):

    -5.3518   4.3468   5.1956   6.2010

          k = 0.0000 0.4000 0.0000     band energies (ev):

    -4.9985   3.7671   4.8640   4.8640

          k =-0.1000 0.5000-0.1000     band energies (ev):

    -4.5253   2.4991   4.3538   4.5108

          k =-0.2000 0.6000-0.2000     band energies (ev):

    -3.8383   1.0351   3.7191   4.3496

          k = 0.7000-0.3000 0.7000     band energies (ev):

    -3.0919  -0.1734   3.2022   4.3952

          k = 0.6000-0.2000 0.6000     band energies (ev):

    -2.9345  -0.3874   2.8972   4.6382

          k = 0.5000-0.1000 0.5000     band energies (ev):

    -3.6032   0.6213   2.8713   5.0429

          k = 0.4000 0.0000 0.4000     band energies (ev):

    -4.3342   1.8814   3.3257   5.5220

          k = 0.0000 0.6000 0.0000     band energies (ev):

    -4.1314   1.9562   4.1118   4.1118

          k =-0.1000 0.7000-0.1000     band energies (ev):

    -3.5085   0.9357   3.4736   3.9043

          k = 0.8000-0.2000 0.8000     band energies (ev):

    -2.7441  -0.0881   2.6291   3.9116

          k = 0.7000-0.1000 0.7000     band energies (ev):

    -2.3135  -0.5761   2.0648   4.1310

          k = 0.6000-0.0000 0.6000     band energies (ev):

    -2.8631   0.0240   2.0374   4.5344

          k = 0.0000 0.8000 0.0000     band energies (ev):

    -2.9501   0.1689   3.6403   3.6403

          k = 0.9000-0.1000 0.9000     band energies (ev):

    -2.2088  -0.6838   3.0406   3.5913

          k = 0.8000 0.0000 0.8000     band energies (ev):

    -1.7201  -1.1132   2.2391   3.7614

          k = 0.0000-1.0000 0.0000     band energies (ev):

    -1.4955  -1.4955   3.4806   3.4806

          k =-0.2000 0.4000 0.0000     band energies (ev):

    -4.8305   2.9969   4.2605   5.3958

          k =-0.3000 0.5000-0.1000     band energies (ev):

    -4.2087   1.5653   3.6687   5.0126

          k = 0.6000-0.4000 0.8000     band energies (ev):

    -3.4474   0.1769   3.4399   4.6544

          k = 0.5000-0.3000 0.7000     band energies (ev):

    -2.9767  -0.5161   3.3815   4.5131

          k =-0.2000 0.6000 0.0000     band energies (ev):

    -3.9789   1.5913   3.5225   4.2585

          k = 0.7000-0.3000 0.9000     band energies (ev):

    -3.2457   0.4710   2.8964   3.9217

          k = 0.6000-0.2000 0.8000     band energies (ev):

    -2.5809  -0.4114   2.4831   3.8650

          k = 0.5000-0.1000 0.7000     band energies (ev):

    -2.7868  -0.1462   2.3273   4.1103

          k = 0.4000 0.0000 0.6000     band energies (ev):

    -3.5371   0.8209   2.6294   4.5597

          k = 0.8000-0.2000 1.0000     band energies (ev):

    -2.8289   0.0830   3.1047   3.4350

          k = 0.7000-0.1000 0.9000     band energies (ev):

    -2.0760  -0.7035   2.3863   3.3431

          k = 0.6000 0.0000 0.8000     band energies (ev):

    -2.0786  -0.6792   1.9615   3.6179

          k =-0.2000-1.0000 0.0000     band energies (ev):

    -1.4400  -1.4400   3.0601   3.0601

          k = 0.6000-0.2000 1.0000     band energies (ev):

    -2.5002  -0.2198   2.3279   3.3310

          k = 0.5000-0.1000 0.9000     band energies (ev):

    -1.9781  -0.7377   2.1664   3.0746

          k =-0.4000-1.0000 0.0000     band energies (ev):

    -1.3418  -1.3418   2.5333   2.5333

     highest occupied level (ev):     6.3785

!    total energy              =     -19.19200617 Ry
     Harris-Foulkes estimate   =     -19.19200990 Ry
     estimated scf accuracy    <       0.00001035 Ry

     The total energy is the sum of the following terms:

     one-electron contribution =       5.25246353 Ry
     hartree contribution      =       1.10123058 Ry
     xc contribution           =      -8.64661329 Ry
     ewald contribution        =     -16.89975860 Ry
     scf correction            =       0.00067161 Ry

     iteration #  5     ecut=    25.00 Ry     beta=0.70
     CG style diagonalization
     ethr =  1.29E-07,  avg # of iterations =  3.9

     total cpu time spent up to now is        1.1 secs

     total energy              =     -19.19200824 Ry
     Harris-Foulkes estimate   =     -19.19200824 Ry
     estimated scf accuracy    <       0.00000005 Ry

     iteration #  6     ecut=    25.00 Ry     beta=0.70
     CG style diagonalization
     ethr =  6.09E-10,  avg # of iterations =  5.7

     total cpu time spent up to now is        1.2 secs

          k = 0.0000 0.0000 0.0000     band energies (ev):

    -5.6986   6.3865   6.3865   6.3865

          k =-0.1000 0.1000-0.1000     band energies (ev):

    -5.5656   5.2389   6.1843   6.1843

          k =-0.2000 0.2000-0.2000     band energies (ev):

    -5.1729   3.3567   5.7975   5.7975

          k =-0.3000 0.3000-0.3000     band energies (ev):

    -4.5470   1.5463   5.4584   5.4584

          k =-0.4000 0.4000-0.4000     band energies (ev):

    -3.7851   0.0461   5.2438   5.2438

          k = 0.5000-0.5000 0.5000     band energies (ev):

    -3.3217  -0.6670   5.1715   5.1715

          k = 0.0000 0.2000 0.0000     band energies (ev):

    -5.5210   5.4638   5.7976   5.7976

          k =-0.1000 0.3000-0.1000     band energies (ev):

    -5.2137   3.9282   5.3553   5.5389

          k =-0.2000 0.4000-0.2000     band energies (ev):

    -4.6611   2.1419   5.0323   5.1009

          k =-0.3000 0.5000-0.3000     band energies (ev):

    -3.9237   0.5434   4.6835   4.8840

          k = 0.6000-0.4000 0.6000     band energies (ev):

    -3.2675  -0.5149   4.3878   4.9190

          k = 0.5000-0.3000 0.5000     band energies (ev):

    -3.4393  -0.2604   4.2554   5.1231

          k = 0.4000-0.2000 0.4000     band energies (ev):

    -4.1841   1.0456   4.3131   5.4638

          k = 0.3000-0.1000 0.3000     band energies (ev):

    -4.8720   2.7210   4.5882   5.8768

          k = 0.2000 0.0000 0.2000     band energies (ev):

    -5.3456   4.3542   5.2023   6.2089

          k = 0.0000 0.4000 0.0000     band energies (ev):

    -4.9922   3.7750   4.8707   4.8707

          k =-0.1000 0.5000-0.1000     band energies (ev):

    -4.5189   2.5065   4.3603   4.5174

          k =-0.2000 0.6000-0.2000     band energies (ev):

    -3.8318   1.0420   3.7253   4.3561

          k = 0.7000-0.3000 0.7000     band energies (ev):

    -3.0850  -0.1670   3.2083   4.4018

          k = 0.6000-0.2000 0.6000     band energies (ev):

    -2.9275  -0.3811   2.9031   4.6450

          k = 0.5000-0.1000 0.5000     band energies (ev):

    -3.5965   0.6280   2.8770   5.0500

          k = 0.4000 0.0000 0.4000     band energies (ev):

    -4.3277   1.8886   3.3313   5.5294

          k = 0.0000 0.6000 0.0000     band energies (ev):

    -4.1249   1.9638   4.1182   4.1182

          k =-0.1000 0.7000-0.1000     band energies (ev):

    -3.5019   0.9431   3.4795   3.9106

          k = 0.8000-0.2000 0.8000     band energies (ev):

    -2.7373  -0.0809   2.6345   3.9179

          k = 0.7000-0.1000 0.7000     band energies (ev):

    -2.3064  -0.5692   2.0699   4.1375

          k = 0.6000-0.0000 0.6000     band energies (ev):

    -2.8562   0.0311   2.0424   4.5411

          k = 0.0000 0.8000 0.0000     band energies (ev):

    -2.9434   0.1763   3.6466   3.6466

          k = 0.9000-0.1000 0.9000     band energies (ev):

    -2.2020  -0.6766   3.0462   3.5975

          k = 0.8000 0.0000 0.8000     band energies (ev):

    -1.7129  -1.1062   2.2442   3.7677

          k = 0.0000-1.0000 0.0000     band energies (ev):

    -1.4885  -1.4885   3.4868   3.4868

          k =-0.2000 0.4000 0.0000     band energies (ev):

    -4.8241   3.0043   4.2666   5.4030

          k =-0.3000 0.5000-0.1000     band energies (ev):

    -4.2022   1.5723   3.6747   5.0195

          k = 0.6000-0.4000 0.8000     band energies (ev):

    -3.4407   0.1833   3.4461   4.6611

          k = 0.5000-0.3000 0.7000     band energies (ev):

    -2.9697  -0.5101   3.3878   4.5197

          k =-0.2000 0.6000 0.0000     band energies (ev):

    -3.9724   1.5987   3.5284   4.2649

          k = 0.7000-0.3000 0.9000     band energies (ev):

    -3.2390   0.4782   2.9020   3.9278

          k = 0.6000-0.2000 0.8000     band energies (ev):

    -2.5738  -0.4047   2.4887   3.8711

          k = 0.5000-0.1000 0.7000     band energies (ev):

    -2.7798  -0.1393   2.3327   4.1165

          k = 0.4000 0.0000 0.6000     band energies (ev):

    -3.5305   0.8281   2.6347   4.5662

          k = 0.8000-0.2000 1.0000     band energies (ev):

    -2.8222   0.0904   3.1104   3.4408

          k = 0.7000-0.1000 0.9000     band energies (ev):

    -2.0690  -0.6963   2.3914   3.3489

          k = 0.6000 0.0000 0.8000     band energies (ev):

    -2.0715  -0.6721   1.9664   3.6239

          k =-0.2000-1.0000 0.0000     band energies (ev):

    -1.4329  -1.4329   3.0658   3.0658

          k = 0.6000-0.2000 1.0000     band energies (ev):

    -2.4933  -0.2126   2.3331   3.3366

          k = 0.5000-0.1000 0.9000     band energies (ev):

    -1.9710  -0.7305   2.1715   3.0801

          k =-0.4000-1.0000 0.0000     band energies (ev):

    -1.3346  -1.3346   2.5385   2.5385

     highest occupied level (ev):     6.3865

!    total energy              =     -19.19200837 Ry
     Harris-Foulkes estimate   =     -19.19200838 Ry
     estimated scf accuracy    <       0.00000002 Ry

     The total energy is the sum of the following terms:

     one-electron contribution =       5.25319082 Ry
     hartree contribution      =       1.10098935 Ry
     xc contribution           =      -8.64646755 Ry
     ewald contribution        =     -16.89975860 Ry
     scf correction            =       0.00003761 Ry

     iteration #  7     ecut=    25.00 Ry     beta=0.70
     CG style diagonalization
     ethr =  1.89E-10,  avg # of iterations =  3.5

     total cpu time spent up to now is        1.3 secs

     total energy              =     -19.19200837 Ry
     Harris-Foulkes estimate   =     -19.19200837 Ry
     estimated scf accuracy    <          2.0E-10 Ry

     iteration #  8     ecut=    25.00 Ry     beta=0.70
     CG style diagonalization
     ethr =  2.48E-12,  avg # of iterations =  4.8

     total cpu time spent up to now is        1.4 secs

          k = 0.0000 0.0000 0.0000     band energies (ev):

    -5.6983   6.3869   6.3869   6.3869

          k =-0.1000 0.1000-0.1000     band energies (ev):

    -5.5653   5.2392   6.1846   6.1846

          k =-0.2000 0.2000-0.2000     band energies (ev):

    -5.1726   3.3571   5.7978   5.7978

          k =-0.3000 0.3000-0.3000     band energies (ev):

    -4.5468   1.5466   5.4587   5.4587

          k =-0.4000 0.4000-0.4000     band energies (ev):

    -3.7848   0.0464   5.2441   5.2441

          k = 0.5000-0.5000 0.5000     band energies (ev):

    -3.3214  -0.6667   5.1718   5.1718

          k = 0.0000 0.2000 0.0000     band energies (ev):

    -5.5207   5.4642   5.7979   5.7979

          k =-0.1000 0.3000-0.1000     band energies (ev):

    -5.2134   3.9285   5.3556   5.5392

          k =-0.2000 0.4000-0.2000     band energies (ev):

    -4.6608   2.1422   5.0326   5.1012

          k =-0.3000 0.5000-0.3000     band energies (ev):

    -3.9234   0.5436   4.6838   4.8843

          k = 0.6000-0.4000 0.6000     band energies (ev):

    -3.2672  -0.5146   4.3881   4.9193

          k = 0.5000-0.3000 0.5000     band energies (ev):

    -3.4390  -0.2601   4.2557   5.1234

          k = 0.4000-0.2000 0.4000     band energies (ev):

    -4.1839   1.0459   4.3134   5.4641

          k = 0.3000-0.1000 0.3000     band energies (ev):

    -4.8717   2.7213   4.5885   5.8771

          k = 0.2000 0.0000 0.2000     band energies (ev):

    -5.3453   4.3545   5.2026   6.2093

          k = 0.0000 0.4000 0.0000     band energies (ev):

    -4.9919   3.7754   4.8710   4.8710

          k =-0.1000 0.5000-0.1000     band energies (ev):

    -4.5187   2.5068   4.3605   4.5177

          k =-0.2000 0.6000-0.2000     band energies (ev):

    -3.8315   1.0423   3.7256   4.3564

          k = 0.7000-0.3000 0.7000     band energies (ev):

    -3.0847  -0.1668   3.2085   4.4021

          k = 0.6000-0.2000 0.6000     band energies (ev):

    -2.9272  -0.3809   2.9034   4.6453

          k = 0.5000-0.1000 0.5000     band energies (ev):

    -3.5962   0.6283   2.8772   5.0503

          k = 0.4000 0.0000 0.4000     band energies (ev):

    -4.3274   1.8889   3.3316   5.5298

          k = 0.0000 0.6000 0.0000     band energies (ev):

    -4.1246   1.9642   4.1185   4.1185

          k =-0.1000 0.7000-0.1000     band energies (ev):

    -3.5016   0.9435   3.4797   3.9109

          k = 0.8000-0.2000 0.8000     band energies (ev):

    -2.7370  -0.0806   2.6347   3.9182

          k = 0.7000-0.1000 0.7000     band energies (ev):

    -2.3061  -0.5689   2.0701   4.1378

          k = 0.6000-0.0000 0.6000     band energies (ev):

    -2.8559   0.0314   2.0426   4.5414

          k = 0.0000 0.8000 0.0000     band energies (ev):

    -2.9431   0.1766   3.6468   3.6468

          k = 0.9000-0.1000 0.9000     band energies (ev):

    -2.2017  -0.6763   3.0465   3.5977

          k = 0.8000 0.0000 0.8000     band energies (ev):

    -1.7126  -1.1059   2.2444   3.7679

          k = 0.0000-1.0000 0.0000     band energies (ev):

    -1.4882  -1.4882   3.4871   3.4871

          k =-0.2000 0.4000 0.0000     band energies (ev):

    -4.8238   3.0046   4.2669   5.4033

          k =-0.3000 0.5000-0.1000     band energies (ev):

    -4.2020   1.5726   3.6750   5.0198

          k = 0.6000-0.4000 0.8000     band energies (ev):

    -3.4404   0.1836   3.4463   4.6614

          k = 0.5000-0.3000 0.7000     band energies (ev):

    -2.9694  -0.5098   3.3880   4.5199

          k =-0.2000 0.6000 0.0000     band energies (ev):

    -3.9721   1.5991   3.5286   4.2652

          k = 0.7000-0.3000 0.9000     band energies (ev):

    -3.2387   0.4785   2.9023   3.9281

          k = 0.6000-0.2000 0.8000     band energies (ev):

    -2.5735  -0.4044   2.4889   3.8713

          k = 0.5000-0.1000 0.7000     band energies (ev):

    -2.7795  -0.1390   2.3329   4.1168

          k = 0.4000 0.0000 0.6000     band energies (ev):

    -3.5302   0.8284   2.6349   4.5665

          k = 0.8000-0.2000 1.0000     band energies (ev):

    -2.8219   0.0907   3.1107   3.4411

          k = 0.7000-0.1000 0.9000     band energies (ev):

    -2.0687  -0.6960   2.3916   3.3491

          k = 0.6000 0.0000 0.8000     band energies (ev):

    -2.0712  -0.6718   1.9666   3.6242

          k =-0.2000-1.0000 0.0000     band energies (ev):

    -1.4326  -1.4326   3.0661   3.0661

          k = 0.6000-0.2000 1.0000     band energies (ev):

    -2.4929  -0.2122   2.3333   3.3369

          k = 0.5000-0.1000 0.9000     band energies (ev):

    -1.9707  -0.7302   2.1717   3.0803

          k =-0.4000-1.0000 0.0000     band energies (ev):

    -1.3342  -1.3342   2.5387   2.5387

     highest occupied level (ev):     6.3869

!    total energy              =     -19.19200837 Ry
     Harris-Foulkes estimate   =     -19.19200837 Ry
     estimated scf accuracy    <          1.9E-11 Ry

     The total energy is the sum of the following terms:

     one-electron contribution =       5.25322366 Ry
     hartree contribution      =       1.10100786 Ry
     xc contribution           =      -8.64647998 Ry
     ewald contribution        =     -16.89975860 Ry
     scf correction            =      -0.00000132 Ry

     iteration #  9     ecut=    25.00 Ry     beta=0.70
     CG style diagonalization
     ethr =  2.43E-13,  avg # of iterations =  4.0

     total cpu time spent up to now is        1.5 secs

     End of self-consistent calculation

          k = 0.0000 0.0000 0.0000 (   537 PWs)   bands (ev):

    -5.6983   6.3869   6.3869   6.3869

          k =-0.1000 0.1000-0.1000 (   549 PWs)   bands (ev):

    -5.5653   5.2392   6.1846   6.1846

          k =-0.2000 0.2000-0.2000 (   564 PWs)   bands (ev):

    -5.1726   3.3570   5.7978   5.7978

          k =-0.3000 0.3000-0.3000 (   567 PWs)   bands (ev):

    -4.5468   1.5466   5.4587   5.4587

          k =-0.4000 0.4000-0.4000 (   559 PWs)   bands (ev):

    -3.7849   0.0464   5.2441   5.2441

          k = 0.5000-0.5000 0.5000 (   568 PWs)   bands (ev):

    -3.3214  -0.6667   5.1718   5.1718

          k = 0.0000 0.2000 0.0000 (   556 PWs)   bands (ev):

    -5.5207   5.4642   5.7979   5.7979

          k =-0.1000 0.3000-0.1000 (   557 PWs)   bands (ev):

    -5.2134   3.9285   5.3556   5.5392

          k =-0.2000 0.4000-0.2000 (   564 PWs)   bands (ev):

    -4.6608   2.1422   5.0326   5.1012

          k =-0.3000 0.5000-0.3000 (   565 PWs)   bands (ev):

    -3.9234   0.5436   4.6838   4.8843

          k = 0.6000-0.4000 0.6000 (   566 PWs)   bands (ev):

    -3.2672  -0.5147   4.3881   4.9193

          k = 0.5000-0.3000 0.5000 (   571 PWs)   bands (ev):

    -3.4390  -0.2601   4.2557   5.1234

          k = 0.4000-0.2000 0.4000 (   564 PWs)   bands (ev):

    -4.1839   1.0459   4.3134   5.4641

          k = 0.3000-0.1000 0.3000 (   566 PWs)   bands (ev):

    -4.8717   2.7213   4.5885   5.8771

          k = 0.2000 0.0000 0.2000 (   559 PWs)   bands (ev):

    -5.3453   4.3545   5.2026   6.2093

          k = 0.0000 0.4000 0.0000 (   568 PWs)   bands (ev):

    -4.9919   3.7754   4.8710   4.8710

          k =-0.1000 0.5000-0.1000 (   564 PWs)   bands (ev):

    -4.5187   2.5068   4.3605   4.5177

          k =-0.2000 0.6000-0.2000 (   556 PWs)   bands (ev):

    -3.8315   1.0423   3.7256   4.3564

          k = 0.7000-0.3000 0.7000 (   563 PWs)   bands (ev):

    -3.0847  -0.1668   3.2085   4.4021

          k = 0.6000-0.2000 0.6000 (   562 PWs)   bands (ev):

    -2.9272  -0.3809   2.9034   4.6453

          k = 0.5000-0.1000 0.5000 (   556 PWs)   bands (ev):

    -3.5962   0.6283   2.8772   5.0503

          k = 0.4000 0.0000 0.4000 (   562 PWs)   bands (ev):

    -4.3274   1.8889   3.3316   5.5298

          k = 0.0000 0.6000 0.0000 (   564 PWs)   bands (ev):

    -4.1246   1.9642   4.1185   4.1185

          k =-0.1000 0.7000-0.1000 (   560 PWs)   bands (ev):

    -3.5017   0.9434   3.4797   3.9109

          k = 0.8000-0.2000 0.8000 (   560 PWs)   bands (ev):

    -2.7370  -0.0806   2.6347   3.9182

          k = 0.7000-0.1000 0.7000 (   559 PWs)   bands (ev):

    -2.3061  -0.5689   2.0701   4.1378

          k = 0.6000-0.0000 0.6000 (   554 PWs)   bands (ev):

    -2.8559   0.0314   2.0426   4.5414

          k = 0.0000 0.8000 0.0000 (   560 PWs)   bands (ev):

    -2.9431   0.1766   3.6468   3.6468

          k = 0.9000-0.1000 0.9000 (   562 PWs)   bands (ev):

    -2.2017  -0.6763   3.0465   3.5977

          k = 0.8000 0.0000 0.8000 (   552 PWs)   bands (ev):

    -1.7126  -1.1059   2.2444   3.7679

          k = 0.0000-1.0000 0.0000 (   556 PWs)   bands (ev):

    -1.4882  -1.4882   3.4871   3.4871

          k =-0.2000 0.4000 0.0000 (   559 PWs)   bands (ev):

    -4.8238   3.0046   4.2669   5.4033

          k =-0.3000 0.5000-0.1000 (   560 PWs)   bands (ev):

    -4.2020   1.5726   3.6750   5.0198

          k = 0.6000-0.4000 0.8000 (   560 PWs)   bands (ev):

    -3.4404   0.1836   3.4463   4.6614

          k = 0.5000-0.3000 0.7000 (   558 PWs)   bands (ev):

    -2.9694  -0.5098   3.3880   4.5199

          k =-0.2000 0.6000 0.0000 (   559 PWs)   bands (ev):

    -3.9721   1.5991   3.5286   4.2652

          k = 0.7000-0.3000 0.9000 (   562 PWs)   bands (ev):

    -3.2387   0.4785   2.9023   3.9281

          k = 0.6000-0.2000 0.8000 (   560 PWs)   bands (ev):

    -2.5735  -0.4045   2.4889   3.8713

          k = 0.5000-0.1000 0.7000 (   557 PWs)   bands (ev):

    -2.7795  -0.1390   2.3329   4.1168

          k = 0.4000 0.0000 0.6000 (   558 PWs)   bands (ev):

    -3.5302   0.8284   2.6349   4.5665

          k = 0.8000-0.2000 1.0000 (   566 PWs)   bands (ev):

    -2.8219   0.0907   3.1106   3.4411

          k = 0.7000-0.1000 0.9000 (   558 PWs)   bands (ev):

    -2.0687  -0.6960   2.3916   3.3491

          k = 0.6000 0.0000 0.8000 (   554 PWs)   bands (ev):

    -2.0712  -0.6718   1.9666   3.6241

          k =-0.2000-1.0000 0.0000 (   568 PWs)   bands (ev):

    -1.4326  -1.4326   3.0660   3.0660

          k = 0.6000-0.2000 1.0000 (   565 PWs)   bands (ev):

    -2.4930  -0.2122   2.3333   3.3368

          k = 0.5000-0.1000 0.9000 (   560 PWs)   bands (ev):

    -1.9707  -0.7302   2.1717   3.0803

          k =-0.4000-1.0000 0.0000 (   550 PWs)   bands (ev):

    -1.3342  -1.3342   2.5387   2.5387

     highest occupied level (ev):     6.3869

!    total energy              =     -19.19200837 Ry
     Harris-Foulkes estimate   =     -19.19200837 Ry
     estimated scf accuracy    <          3.1E-13 Ry

     The total energy is the sum of the following terms:

     one-electron contribution =       5.25322265 Ry
     hartree contribution      =       1.10100744 Ry
     xc contribution           =      -8.64647986 Ry
     ewald contribution        =     -16.89975860 Ry

     convergence has been achieved in   9 iterations

     Forces acting on atoms (cartesian axes, Ry/au):

     atom    1 type  1   force =     0.00000000    0.00000000    0.00000000
     atom    2 type  1   force =    -0.00000000   -0.00000000   -0.00000000

     Total force =     0.000000     Total SCF correction =     0.000000

     Writing output data file si.save

     init_run     :      0.12s CPU      0.29s WALL (       1 calls)
     electrons    :      0.75s CPU      0.89s WALL (       1 calls)
     forces       :      0.01s CPU      0.01s WALL (       1 calls)

     Called by init_run:
     wfcinit      :      0.06s CPU      0.10s WALL (       1 calls)
     potinit      :      0.00s CPU      0.01s WALL (       1 calls)

     Called by electrons:
     c_bands      :      0.65s CPU      0.76s WALL (      10 calls)
     sum_band     :      0.07s CPU      0.08s WALL (      10 calls)
     v_of_rho     :      0.01s CPU      0.01s WALL (      10 calls)
     newd         :      0.01s CPU      0.02s WALL (      10 calls)
     mix_rho      :      0.00s CPU      0.00s WALL (      10 calls)

     Called by c_bands:
     init_us_2    :      0.02s CPU      0.02s WALL (    1034 calls)
     ccgdiagg     :      0.54s CPU      0.63s WALL (     470 calls)
     wfcrot       :      0.15s CPU      0.20s WALL (     423 calls)

     Called by sum_band:
     sum_band:bec :      0.00s CPU      0.00s WALL (     470 calls)
     addusdens    :      0.01s CPU      0.01s WALL (      10 calls)

     Called by *cgdiagg:
     h_psi        :      0.45s CPU      0.54s WALL (    6094 calls)
     s_psi        :      0.03s CPU      0.04s WALL (   11765 calls)
     cdiaghg      :      0.01s CPU      0.03s WALL (     423 calls)

     Called by h_psi:
     h_psi:pot    :      0.44s CPU      0.53s WALL (    6094 calls)
     h_psi:calbec :      0.06s CPU      0.08s WALL (    6094 calls)
     vloc_psi     :      0.35s CPU      0.41s WALL (    6094 calls)
     add_vuspsi   :      0.02s CPU      0.03s WALL (    6094 calls)
     h_1psi       :      0.36s CPU      0.43s WALL (    5671 calls)

     General routines
     calbec       :      0.09s CPU      0.12s WALL (   12423 calls)
     fft          :      0.01s CPU      0.07s WALL (     143 calls)
     fftw         :      0.36s CPU      0.42s WALL (   16982 calls)
     davcio       :      0.00s CPU      0.00s WALL (      47 calls)

     Parallel routines
     fft_scatter  :      0.26s CPU      0.31s WALL (   17125 calls)

     PWSCF        :     1.09s CPU         1.60s WALL


   This run was terminated on:  16:53:29  23Jul2021            

=------------------------------------------------------------------------------=
   JOB DONE.
=------------------------------------------------------------------------------=
