
     Program PW2WANNIER v.6.1 (svn rev. 13369) starts on 23Jul2021 at 16:56:47 

     This program is part of the open-source Quantum ESPRESSO suite
     for quantum simulation of materials; please cite
         "P. Giannozzi et al., J. Phys.:Condens. Matter 21 395502 (2009);
          URL http://www.quantum-espresso.org", 
     in publications or presentations arising from this work. More details at
     http://www.quantum-espresso.org/quote

     Parallel version (MPI), running on    24 processors
     R & G space division:  proc/nbgrp/npool/nimage =      24

  Reading nscf_save data

     Reading data from directory:
     ./si.save

   Info: using nr1, nr2, nr3 values from input

   Info: using nr1, nr2, nr3 values from input

     IMPORTANT: XC functional enforced from input :
     Exchange-correlation      =  SLA  PW   PBE  PBE ( 1  4  3  4 0 0)
     Any further DFT definition will be discarded
     Please, verify this is what you really want


     Parallelization info
     --------------------
     sticks:   dense  smooth     PW     G-vecs:    dense   smooth      PW
     Min          15      15      5                  185      185      38
     Max          16      16      6                  188      188      42
     Sum         361     361    121                 4477     4477     941


     Check: negative/imaginary core charge=   -0.000002    0.000000

  Spin CASE ( default = unpolarized )

  Wannier mode is: standalone     

  -----------------
  *** Reading nnkp 
  -----------------

  Checking info from wannier.nnkp file

  - Real lattice is ok
  - Reciprocal lattice is ok
  - K-points are ok
  - Number of wannier functions is ok (  8)
  - All guiding functions are given 

 Projections:
    0.000000    0.000000    0.000000 -3  1  1    1.000000
    0.000000    0.000000    0.000000 -3  2  1    1.000000
    0.000000    0.000000    0.000000 -3  3  1    1.000000
    0.000000    0.000000    0.000000 -3  4  1    1.000000
    0.250000    0.250000    0.250000 -3  1  1    1.000000
    0.250000    0.250000    0.250000 -3  2  1    1.000000
    0.250000    0.250000    0.250000 -3  3  1    1.000000
    0.250000    0.250000    0.250000 -3  4  1    1.000000

  Reading data about k-point neighbours 

  All neighbours are found 

  Opening pp-files 


  ---------------
  *** Compute  A 
  ---------------

  AMN: iknum =       64
       1       2       3       4       5       6       7       8       9      10
      11      12      13      14      15      16      17      18      19      20
      21      22      23      24      25      26      27      28      29      30
      31      32      33      34      35      36      37      38      39      40
      41      42      43      44      45      46      47      48      49      50
      51      52      53      54      55      56      57      58      59      60
      61      62      63      64

  AMN calculated

  ---------------
  *** Compute  M 
  ---------------

  MMN: iknum =       64
       1       2       3       4       5       6       7       8       9      10
      11      12      13      14      15      16      17      18      19      20
      21      22      23      24      25      26      27      28      29      30
      31      32      33      34      35      36      37      38      39      40
      41      42      43      44      45      46      47      48      49      50
      51      52      53      54      55      56      57      58      59      60
      61      62      63      64

  MMN calculated

  -----------------------------------
  *** Orbital terms are not computed 
  -----------------------------------

  ----------------
  *** Write bands 
  ----------------


  -----------------------------
  *** Plot info is not printed 
  -----------------------------

  -----------------------------
  *** Parity info is not printed 
  -----------------------------

  ------------
  *** Stop pp 
  ------------


     init_pw2wan  :      0.44s CPU      0.59s WALL (       1 calls)
     compute_amn  :      1.89s CPU      1.95s WALL (       1 calls)
     compute_mmn  :      0.84s CPU      0.88s WALL (       1 calls)

     PW2WANNIER   :     2.33s CPU         2.58s WALL


   This run was terminated on:  16:56:50  23Jul2021            

=------------------------------------------------------------------------------=
   JOB DONE.
=------------------------------------------------------------------------------=

